 Entering Gaussian System, Link 0=g16
 Input=eti-3dp_neutral_scf_g09.com
 Output=eti-3dp_neutral_scf_g09.log
 Initial command:
 /usr/local//g16/l1.exe "/home/orison/scrgauss/Gau-23994.inp" -scrdir="/home/orison/scrgauss/"
 Entering Link 1 = /usr/local//g16/l1.exe PID=     23996.
  
 Copyright (c) 1988,1990,1992,1993,1995,1998,2003,2009,2016,
            Gaussian, Inc.  All Rights Reserved.
  
 This is part of the Gaussian(R) 16 program.  It is based on
 the Gaussian(R) 09 system (copyright 2009, Gaussian, Inc.),
 the Gaussian(R) 03 system (copyright 2003, Gaussian, Inc.),
 the Gaussian(R) 98 system (copyright 1998, Gaussian, Inc.),
 the Gaussian(R) 94 system (copyright 1995, Gaussian, Inc.),
 the Gaussian 92(TM) system (copyright 1992, Gaussian, Inc.),
 the Gaussian 90(TM) system (copyright 1990, Gaussian, Inc.),
 the Gaussian 88(TM) system (copyright 1988, Gaussian, Inc.),
 the Gaussian 86(TM) system (copyright 1986, Carnegie Mellon
 University), and the Gaussian 82(TM) system (copyright 1983,
 Carnegie Mellon University). Gaussian is a federally registered
 trademark of Gaussian, Inc.
  
 This software contains proprietary and confidential information,
 including trade secrets, belonging to Gaussian, Inc.
  
 This software is provided under written license and may be
 used, copied, transmitted, or stored only in accord with that
 written license.
  
 The following legend is applicable only to US Government
 contracts under FAR:
  
                    RESTRICTED RIGHTS LEGEND
  
 Use, reproduction and disclosure by the US Government is
 subject to restrictions as set forth in subparagraphs (a)
 and (c) of the Commercial Computer Software - Restricted
 Rights clause in FAR 52.227-19.
  
 Gaussian, Inc.
 340 Quinnipiac St., Bldg. 40, Wallingford CT 06492
  
  
 ---------------------------------------------------------------
 Warning -- This program may not be used in any manner that
 competes with the business of Gaussian, Inc. or will provide
 assistance to any competitor of Gaussian, Inc.  The licensee
 of this program is prohibited from giving any competitor of
 Gaussian, Inc. access to this program.  By using this program,
 the user acknowledges that Gaussian, Inc. is engaged in the
 business of creating and licensing software in the field of
 computational chemistry and represents and warrants to the
 licensee that it is not a competitor of Gaussian, Inc. and that
 it will not use this program in any manner prohibited above.
 ---------------------------------------------------------------
  

 Cite this work as:
 Gaussian 16, Revision A.03,
 M. J. Frisch, G. W. Trucks, H. B. Schlegel, G. E. Scuseria, 
 M. A. Robb, J. R. Cheeseman, G. Scalmani, V. Barone, 
 G. A. Petersson, H. Nakatsuji, X. Li, M. Caricato, A. V. Marenich, 
 J. Bloino, B. G. Janesko, R. Gomperts, B. Mennucci, H. P. Hratchian, 
 J. V. Ortiz, A. F. Izmaylov, J. L. Sonnenberg, D. Williams-Young, 
 F. Ding, F. Lipparini, F. Egidi, J. Goings, B. Peng, A. Petrone, 
 T. Henderson, D. Ranasinghe, V. G. Zakrzewski, J. Gao, N. Rega, 
 G. Zheng, W. Liang, M. Hada, M. Ehara, K. Toyota, R. Fukuda, 
 J. Hasegawa, M. Ishida, T. Nakajima, Y. Honda, O. Kitao, H. Nakai, 
 T. Vreven, K. Throssell, J. A. Montgomery, Jr., J. E. Peralta, 
 F. Ogliaro, M. J. Bearpark, J. J. Heyd, E. N. Brothers, K. N. Kudin, 
 V. N. Staroverov, T. A. Keith, R. Kobayashi, J. Normand, 
 K. Raghavachari, A. P. Rendell, J. C. Burant, S. S. Iyengar, 
 J. Tomasi, M. Cossi, J. M. Millam, M. Klene, C. Adamo, R. Cammi, 
 J. W. Ochterski, R. L. Martin, K. Morokuma, O. Farkas, 
 J. B. Foresman, and D. J. Fox, Gaussian, Inc., Wallingford CT, 2016.
 
 ******************************************
 Gaussian 16:  EM64L-G16RevA.03 25-Dec-2016
                 9-Feb-2021 
 ******************************************
 %nproc=8
 Will use up to    8 processors via shared memory.
 %Mem=4GB
 ----------------------------------------------------------------------
 #t B3LYP/6-31G(d,p) scrf=(solvent=water) # Gfinput IOP(6/7=3) Pop=hirs
 hfeld Density Test # Units(Ang,Deg)
 ----------------------------------------------------------------------
 -------------------
 eti-3dp-opt-g09.log
 -------------------
 Symbolic Z-matrix:
 Charge = -3 Multiplicity = 1
 C                    -0.07675   1.85793  -0.84048 
 H                    -0.17799   1.53203  -1.88011 
 H                     0.83484   2.45444  -0.75806 
 C                     0.01146   0.65753   0.10442 
 O                     0.05161   1.1605    1.46516 
 H                     0.76695   0.57192   1.83095 
 P                     1.6892   -0.2733   -0.09639 
 P                    -1.52266  -0.38455  -0.06458 
 O                     2.00059  -0.53782   1.41531 
 O                    -1.56086  -1.5035    0.96005 
 O                    -2.72143   0.71262   0.42851 
 O                     2.65623   0.73981  -0.74393 
 O                     1.48873  -1.55721  -0.92266 
 O                    -1.84917  -0.67913  -1.52412 
 H                    -0.94528   2.48389  -0.59895 
 H                    -3.11049   1.05044  -0.38959 
 
                    Distance matrix (angstroms):
                    1          2          3          4          5
     1  C    0.000000
     2  H    1.094208   0.000000
     3  H    1.092526   1.770780   0.000000
     4  C    1.530221   2.176925   2.156551   0.000000
     5  O    2.412231   3.373660   2.688947   1.451277   0.000000
     6  H    3.082562   3.947998   3.201791   1.886531   0.995962
     7  P    2.866076   3.150757   2.933991   1.929140   2.678791
     8  P    2.778739   2.962696   3.754808   1.862261   2.684327
     9  O    3.891471   4.459852   3.877645   2.665320   2.585594
    10  O    4.091907   4.381014   4.935238   2.806126   3.154694
    11  O    3.149032   3.531324   4.133877   2.752591   2.994159
    12  O    2.954436   3.154571   2.501523   2.778718   3.441091
    13  O    3.757747   3.638416   4.067923   2.853470   3.892678
    14  O    3.169465   2.794423   4.196429   2.810827   3.991616
    15  H    1.097500   1.770916   1.787459   2.178456   2.646828
    16  H    3.171580   3.324626   4.203881   3.185121   3.667572
                    6          7          8          9         10
     6  H    0.000000
     7  P    2.297734   0.000000
     8  P    3.122528   3.213944   0.000000
     9  O    1.710598   1.565941   3.824507   0.000000
    10  O    3.237983   3.632127   1.517687   3.718027   0.000000
    11  O    3.762370   4.549859   1.698225   4.983457   2.557469
    12  O    3.198058   1.542999   4.380505   2.593168   5.071473
    13  O    3.554790   1.539914   3.343636   2.601396   3.584338
    14  O    4.434603   3.837079   1.524350   4.845706   2.633213
    15  H    3.534371   3.846446   2.974368   4.676123   4.325355
    16  H    4.493809   4.987512   2.164724   5.648307   3.278032
                   11         12         13         14         15
    11  O    0.000000
    12  O    5.504051   0.000000
    13  O    4.970235   2.582886   0.000000
    14  O    2.551582   4.787558   3.503478   0.000000
    15  H    2.710679   4.004211   4.728603   3.417258   0.000000
    16  H    0.966839   5.785940   5.313834   2.422705   2.605138
                   16
    16  H    0.000000
 Framework group  C1[X(C2H5O7P2)]
 Deg. of freedom    42
                         Standard orientation:                         
 ---------------------------------------------------------------------
 Center     Atomic      Atomic             Coordinates (Angstroms)
 Number     Number       Type             X           Y           Z
 ---------------------------------------------------------------------
      1          6           0       -0.076754    1.857931   -0.840479
      2          1           0       -0.177993    1.532031   -1.880109
      3          1           0        0.834835    2.454443   -0.758059
      4          6           0        0.011459    0.657531    0.104421
      5          8           0        0.051608    1.160501    1.465161
      6          1           0        0.766949    0.571923    1.830951
      7         15           0        1.689201   -0.273295   -0.096389
      8         15           0       -1.522659   -0.384552   -0.064579
      9          8           0        2.000591   -0.537815    1.415311
     10          8           0       -1.560857   -1.503502    0.960051
     11          8           0       -2.721431    0.712615    0.428511
     12          8           0        2.656229    0.739817   -0.743929
     13          8           0        1.488733   -1.557206   -0.922659
     14          8           0       -1.849168   -0.679133   -1.524119
     15          1           0       -0.945285    2.483889   -0.598949
     16          1           0       -3.110492    1.050435   -0.389589
 ---------------------------------------------------------------------
 Rotational constants (GHZ):           1.4225194           0.6680304           0.6379149
 AO basis set in the form of general basis input (Overlap normalization):
      1 0
 S   6 1.00       0.000000000000
      0.3047524880D+04  0.1834737132D-02
      0.4573695180D+03  0.1403732281D-01
      0.1039486850D+03  0.6884262226D-01
      0.2921015530D+02  0.2321844432D+00
      0.9286662960D+01  0.4679413484D+00
      0.3163926960D+01  0.3623119853D+00
 SP   3 1.00       0.000000000000
      0.7868272350D+01 -0.1193324198D+00  0.6899906659D-01
      0.1881288540D+01 -0.1608541517D+00  0.3164239610D+00
      0.5442492580D+00  0.1143456438D+01  0.7443082909D+00
 SP   1 1.00       0.000000000000
      0.1687144782D+00  0.1000000000D+01  0.1000000000D+01
 D   1 1.00       0.000000000000
      0.8000000000D+00  0.1000000000D+01
 ****
      2 0
 S   3 1.00       0.000000000000
      0.1873113696D+02  0.3349460434D-01
      0.2825394365D+01  0.2347269535D+00
      0.6401216923D+00  0.8137573261D+00
 S   1 1.00       0.000000000000
      0.1612777588D+00  0.1000000000D+01
 P   1 1.00       0.000000000000
      0.1100000000D+01  0.1000000000D+01
 ****
      3 0
 S   3 1.00       0.000000000000
      0.1873113696D+02  0.3349460434D-01
      0.2825394365D+01  0.2347269535D+00
      0.6401216923D+00  0.8137573261D+00
 S   1 1.00       0.000000000000
      0.1612777588D+00  0.1000000000D+01
 P   1 1.00       0.000000000000
      0.1100000000D+01  0.1000000000D+01
 ****
      4 0
 S   6 1.00       0.000000000000
      0.3047524880D+04  0.1834737132D-02
      0.4573695180D+03  0.1403732281D-01
      0.1039486850D+03  0.6884262226D-01
      0.2921015530D+02  0.2321844432D+00
      0.9286662960D+01  0.4679413484D+00
      0.3163926960D+01  0.3623119853D+00
 SP   3 1.00       0.000000000000
      0.7868272350D+01 -0.1193324198D+00  0.6899906659D-01
      0.1881288540D+01 -0.1608541517D+00  0.3164239610D+00
      0.5442492580D+00  0.1143456438D+01  0.7443082909D+00
 SP   1 1.00       0.000000000000
      0.1687144782D+00  0.1000000000D+01  0.1000000000D+01
 D   1 1.00       0.000000000000
      0.8000000000D+00  0.1000000000D+01
 ****
      5 0
 S   6 1.00       0.000000000000
      0.5484671660D+04  0.1831074430D-02
      0.8252349460D+03  0.1395017220D-01
      0.1880469580D+03  0.6844507810D-01
      0.5296450000D+02  0.2327143360D+00
      0.1689757040D+02  0.4701928980D+00
      0.5799635340D+01  0.3585208530D+00
 SP   3 1.00       0.000000000000
      0.1553961625D+02 -0.1107775495D+00  0.7087426823D-01
      0.3599933586D+01 -0.1480262627D+00  0.3397528391D+00
      0.1013761750D+01  0.1130767015D+01  0.7271585773D+00
 SP   1 1.00       0.000000000000
      0.2700058226D+00  0.1000000000D+01  0.1000000000D+01
 D   1 1.00       0.000000000000
      0.8000000000D+00  0.1000000000D+01
 ****
      6 0
 S   3 1.00       0.000000000000
      0.1873113696D+02  0.3349460434D-01
      0.2825394365D+01  0.2347269535D+00
      0.6401216923D+00  0.8137573261D+00
 S   1 1.00       0.000000000000
      0.1612777588D+00  0.1000000000D+01
 P   1 1.00       0.000000000000
      0.1100000000D+01  0.1000000000D+01
 ****
      7 0
 S   6 1.00       0.000000000000
      0.1941330000D+05  0.1851598923D-02
      0.2909420000D+04  0.1420619174D-01
      0.6613640000D+03  0.6999945928D-01
      0.1857590000D+03  0.2400788603D+00
      0.5919430000D+02  0.4847617180D+00
      0.2003100000D+02  0.3351998050D+00
 SP   6 1.00       0.000000000000
      0.3394780000D+03 -0.2782170105D-02  0.4564616191D-02
      0.8101010000D+02 -0.3604990135D-01  0.3369357188D-01
      0.2587800000D+02 -0.1166310044D+00  0.1397548834D+00
      0.9452210000D+01  0.9683280364D-01  0.3393617168D+00
      0.3665660000D+01  0.6144180231D+00  0.4509206237D+00
      0.1467460000D+01  0.4037980152D+00  0.2385858009D+00
 SP   3 1.00       0.000000000000
      0.2156230000D+01 -0.2529241139D+00 -0.1776531273D-01
      0.7489970000D+00  0.3285184468D-01  0.2740581964D+00
      0.2831450000D+00  0.1081254762D+01  0.7854215630D+00
 SP   1 1.00       0.000000000000
      0.9983170000D-01  0.1000000000D+01  0.1000000000D+01
 D   1 1.00       0.000000000000
      0.5500000000D+00  0.1000000000D+01
 ****
      8 0
 S   6 1.00       0.000000000000
      0.1941330000D+05  0.1851598923D-02
      0.2909420000D+04  0.1420619174D-01
      0.6613640000D+03  0.6999945928D-01
      0.1857590000D+03  0.2400788603D+00
      0.5919430000D+02  0.4847617180D+00
      0.2003100000D+02  0.3351998050D+00
 SP   6 1.00       0.000000000000
      0.3394780000D+03 -0.2782170105D-02  0.4564616191D-02
      0.8101010000D+02 -0.3604990135D-01  0.3369357188D-01
      0.2587800000D+02 -0.1166310044D+00  0.1397548834D+00
      0.9452210000D+01  0.9683280364D-01  0.3393617168D+00
      0.3665660000D+01  0.6144180231D+00  0.4509206237D+00
      0.1467460000D+01  0.4037980152D+00  0.2385858009D+00
 SP   3 1.00       0.000000000000
      0.2156230000D+01 -0.2529241139D+00 -0.1776531273D-01
      0.7489970000D+00  0.3285184468D-01  0.2740581964D+00
      0.2831450000D+00  0.1081254762D+01  0.7854215630D+00
 SP   1 1.00       0.000000000000
      0.9983170000D-01  0.1000000000D+01  0.1000000000D+01
 D   1 1.00       0.000000000000
      0.5500000000D+00  0.1000000000D+01
 ****
      9 0
 S   6 1.00       0.000000000000
      0.5484671660D+04  0.1831074430D-02
      0.8252349460D+03  0.1395017220D-01
      0.1880469580D+03  0.6844507810D-01
      0.5296450000D+02  0.2327143360D+00
      0.1689757040D+02  0.4701928980D+00
      0.5799635340D+01  0.3585208530D+00
 SP   3 1.00       0.000000000000
      0.1553961625D+02 -0.1107775495D+00  0.7087426823D-01
      0.3599933586D+01 -0.1480262627D+00  0.3397528391D+00
      0.1013761750D+01  0.1130767015D+01  0.7271585773D+00
 SP   1 1.00       0.000000000000
      0.2700058226D+00  0.1000000000D+01  0.1000000000D+01
 D   1 1.00       0.000000000000
      0.8000000000D+00  0.1000000000D+01
 ****
     10 0
 S   6 1.00       0.000000000000
      0.5484671660D+04  0.1831074430D-02
      0.8252349460D+03  0.1395017220D-01
      0.1880469580D+03  0.6844507810D-01
      0.5296450000D+02  0.2327143360D+00
      0.1689757040D+02  0.4701928980D+00
      0.5799635340D+01  0.3585208530D+00
 SP   3 1.00       0.000000000000
      0.1553961625D+02 -0.1107775495D+00  0.7087426823D-01
      0.3599933586D+01 -0.1480262627D+00  0.3397528391D+00
      0.1013761750D+01  0.1130767015D+01  0.7271585773D+00
 SP   1 1.00       0.000000000000
      0.2700058226D+00  0.1000000000D+01  0.1000000000D+01
 D   1 1.00       0.000000000000
      0.8000000000D+00  0.1000000000D+01
 ****
     11 0
 S   6 1.00       0.000000000000
      0.5484671660D+04  0.1831074430D-02
      0.8252349460D+03  0.1395017220D-01
      0.1880469580D+03  0.6844507810D-01
      0.5296450000D+02  0.2327143360D+00
      0.1689757040D+02  0.4701928980D+00
      0.5799635340D+01  0.3585208530D+00
 SP   3 1.00       0.000000000000
      0.1553961625D+02 -0.1107775495D+00  0.7087426823D-01
      0.3599933586D+01 -0.1480262627D+00  0.3397528391D+00
      0.1013761750D+01  0.1130767015D+01  0.7271585773D+00
 SP   1 1.00       0.000000000000
      0.2700058226D+00  0.1000000000D+01  0.1000000000D+01
 D   1 1.00       0.000000000000
      0.8000000000D+00  0.1000000000D+01
 ****
     12 0
 S   6 1.00       0.000000000000
      0.5484671660D+04  0.1831074430D-02
      0.8252349460D+03  0.1395017220D-01
      0.1880469580D+03  0.6844507810D-01
      0.5296450000D+02  0.2327143360D+00
      0.1689757040D+02  0.4701928980D+00
      0.5799635340D+01  0.3585208530D+00
 SP   3 1.00       0.000000000000
      0.1553961625D+02 -0.1107775495D+00  0.7087426823D-01
      0.3599933586D+01 -0.1480262627D+00  0.3397528391D+00
      0.1013761750D+01  0.1130767015D+01  0.7271585773D+00
 SP   1 1.00       0.000000000000
      0.2700058226D+00  0.1000000000D+01  0.1000000000D+01
 D   1 1.00       0.000000000000
      0.8000000000D+00  0.1000000000D+01
 ****
     13 0
 S   6 1.00       0.000000000000
      0.5484671660D+04  0.1831074430D-02
      0.8252349460D+03  0.1395017220D-01
      0.1880469580D+03  0.6844507810D-01
      0.5296450000D+02  0.2327143360D+00
      0.1689757040D+02  0.4701928980D+00
      0.5799635340D+01  0.3585208530D+00
 SP   3 1.00       0.000000000000
      0.1553961625D+02 -0.1107775495D+00  0.7087426823D-01
      0.3599933586D+01 -0.1480262627D+00  0.3397528391D+00
      0.1013761750D+01  0.1130767015D+01  0.7271585773D+00
 SP   1 1.00       0.000000000000
      0.2700058226D+00  0.1000000000D+01  0.1000000000D+01
 D   1 1.00       0.000000000000
      0.8000000000D+00  0.1000000000D+01
 ****
     14 0
 S   6 1.00       0.000000000000
      0.5484671660D+04  0.1831074430D-02
      0.8252349460D+03  0.1395017220D-01
      0.1880469580D+03  0.6844507810D-01
      0.5296450000D+02  0.2327143360D+00
      0.1689757040D+02  0.4701928980D+00
      0.5799635340D+01  0.3585208530D+00
 SP   3 1.00       0.000000000000
      0.1553961625D+02 -0.1107775495D+00  0.7087426823D-01
      0.3599933586D+01 -0.1480262627D+00  0.3397528391D+00
      0.1013761750D+01  0.1130767015D+01  0.7271585773D+00
 SP   1 1.00       0.000000000000
      0.2700058226D+00  0.1000000000D+01  0.1000000000D+01
 D   1 1.00       0.000000000000
      0.8000000000D+00  0.1000000000D+01
 ****
     15 0
 S   3 1.00       0.000000000000
      0.1873113696D+02  0.3349460434D-01
      0.2825394365D+01  0.2347269535D+00
      0.6401216923D+00  0.8137573261D+00
 S   1 1.00       0.000000000000
      0.1612777588D+00  0.1000000000D+01
 P   1 1.00       0.000000000000
      0.1100000000D+01  0.1000000000D+01
 ****
     16 0
 S   3 1.00       0.000000000000
      0.1873113696D+02  0.3349460434D-01
      0.2825394365D+01  0.2347269535D+00
      0.6401216923D+00  0.8137573261D+00
 S   1 1.00       0.000000000000
      0.1612777588D+00  0.1000000000D+01
 P   1 1.00       0.000000000000
      0.1100000000D+01  0.1000000000D+01
 ****

   198 basis functions,   391 primitive gaussians,   198 cartesian basis functions
    53 alpha electrons       53 beta electrons
       nuclear repulsion energy       953.5005233990 Hartrees.
 NAtoms=   16 NActive=   16 NUniq=   16 SFac= 1.00D+00 NAtFMM=   60 NAOKFM=F Big=F
 ------------------------------------------------------------------------------
 Polarizable Continuum Model (PCM)
 =================================
 Model                : PCM.
 Atomic radii         : UFF (Universal Force Field).
 Polarization charges : Total charges.
 Charge compensation  : None.
 Solution method      : On-the-fly selection.
 Cavity type          : Scaled VdW (van der Waals Surface) (Alpha=1.100).
 Cavity algorithm     : GePol (No added spheres)
                        Default sphere list used, NSphG=   16.
                        Lebedev-Laikov grids with approx.  5.0 points / Ang**2.
                        Smoothing algorithm: York/Karplus (Gamma=1.0000).
                        Polarization charges: spherical gaussians, with
                                              point-specific exponents (IZeta= 3).
                        Self-potential: point-specific (ISelfS= 7).
                        Self-field    : sphere-specific E.n sum rule (ISelfD= 2).
 Solvent              : Water, Eps=  78.355300 Eps(inf)=   1.777849
 ------------------------------------------------------------------------------
 Spheres list:
 ISph  on   Nord     Re0    Alpha      Xe            Ye            Ze
    1   C      1    1.9255  1.100     -0.076754      1.857931     -0.840479
    2   H      2    1.4430  1.100     -0.177993      1.532031     -1.880109
    3   H      3    1.4430  1.100      0.834835      2.454443     -0.758059
    4   C      4    1.9255  1.100      0.011459      0.657531      0.104421
    5   O      5    1.7500  1.100      0.051608      1.160501      1.465161
    6   H      6    1.4430  1.100      0.766949      0.571923      1.830951
    7   P      7    2.0735  1.100      1.689201     -0.273295     -0.096389
    8   P      8    2.0735  1.100     -1.522659     -0.384552     -0.064579
    9   O      9    1.7500  1.100      2.000591     -0.537815      1.415311
   10   O     10    1.7500  1.100     -1.560857     -1.503502      0.960051
   11   O     11    1.7500  1.100     -2.721431      0.712615      0.428511
   12   O     12    1.7500  1.100      2.656229      0.739817     -0.743929
   13   O     13    1.7500  1.100      1.488733     -1.557206     -0.922659
   14   O     14    1.7500  1.100     -1.849168     -0.679133     -1.524119
   15   H     15    1.4430  1.100     -0.945285      2.483889     -0.598949
   16   H     16    1.4430  1.100     -3.110492      1.050435     -0.389589
 ------------------------------------------------------------------------------
 ExpMin= 9.98D-02 ExpMax= 1.94D+04 ExpMxC= 2.91D+03 IAcc=3 IRadAn=         5 AccDes= 0.00D+00
 Harris functional with IExCor=  402 and IRadAn=       5 diagonalized for initial guess.
 HarFok:  IExCor=  402 AccDes= 0.00D+00 IRadAn=         5 IDoV= 1 UseB2=F ITyADJ=14
 ICtDFT=  3500011 ScaDFX=  1.000000  1.000000  1.000000  1.000000
 FoFCou: FMM=F IPFlag=           0 FMFlag=      100000 FMFlg1=           0
         NFxFlg=           0 DoJE=T BraDBF=F KetDBF=T FulRan=T
         wScrn=  0.000000 ICntrl=       500 IOpCl=  0 I1Cent=   200000004 NGrid=           0
         NMat0=    1 NMatS0=      1 NMatT0=    0 NMatD0=    1 NMtDS0=    0 NMtDT0=    0
 Petite list used in FoFCou.
 Inv3:  Mode=1 IEnd=     7844067.
 Iteration    1 A*A^-1 deviation from unit magnitude is 5.88D-15 for    393.
 Iteration    1 A*A^-1 deviation from orthogonality  is 3.55D-15 for   1523   1307.
 Iteration    1 A^-1*A deviation from unit magnitude is 6.00D-15 for    171.
 Iteration    1 A^-1*A deviation from orthogonality  is 3.14D-15 for   1422    198.
 Error on total polarization charges =  0.00753
 SCF Done:  E(RB3LYP) =  -1289.02804378     A.U. after   13 cycles
            NFock= 13  Conv=0.36D-08     -V/T= 2.0062

 **********************************************************************

            Population analysis using the SCF density.

 **********************************************************************

 Orbital symmetries:
       Occupied  (A) (A) (A) (A) (A) (A) (A) (A) (A) (A) (A) (A)
                 (A) (A) (A) (A) (A) (A) (A) (A) (A) (A) (A) (A)
                 (A) (A) (A) (A) (A) (A) (A) (A) (A) (A) (A) (A)
                 (A) (A) (A) (A) (A) (A) (A) (A) (A) (A) (A) (A)
                 (A) (A) (A) (A) (A)
       Virtual   (A) (A) (A) (A) (A) (A) (A) (A) (A) (A) (A) (A)
                 (A) (A) (A) (A) (A) (A) (A) (A) (A) (A) (A) (A)
                 (A) (A) (A) (A) (A) (A) (A) (A) (A) (A) (A) (A)
                 (A) (A) (A) (A) (A) (A) (A) (A) (A) (A) (A) (A)
                 (A) (A) (A) (A) (A) (A) (A) (A) (A) (A) (A) (A)
                 (A) (A) (A) (A) (A) (A) (A) (A) (A) (A) (A) (A)
                 (A) (A) (A) (A) (A) (A) (A) (A) (A) (A) (A) (A)
                 (A) (A) (A) (A) (A) (A) (A) (A) (A) (A) (A) (A)
                 (A) (A) (A) (A) (A) (A) (A) (A) (A) (A) (A) (A)
                 (A) (A) (A) (A) (A) (A) (A) (A) (A) (A) (A) (A)
                 (A) (A) (A) (A) (A) (A) (A) (A) (A) (A) (A) (A)
                 (A) (A) (A) (A) (A) (A) (A) (A) (A) (A) (A) (A)
                 (A)
 The electronic state is 1-A.
 Alpha  occ. eigenvalues --  -77.11938 -77.08604 -19.10648 -19.08094 -19.03500
 Alpha  occ. eigenvalues --  -19.03474 -19.01348 -19.00671 -19.00478 -10.16939
 Alpha  occ. eigenvalues --  -10.13921  -6.56798  -6.53315  -4.73328  -4.73013
 Alpha  occ. eigenvalues --   -4.72933  -4.69691  -4.69619  -4.69584  -0.97620
 Alpha  occ. eigenvalues --   -0.95190  -0.89657  -0.89549  -0.85725  -0.82510
 Alpha  occ. eigenvalues --   -0.82061  -0.69707  -0.56538  -0.49873  -0.45539
 Alpha  occ. eigenvalues --   -0.43064  -0.38842  -0.38580  -0.36643  -0.35650
 Alpha  occ. eigenvalues --   -0.34444  -0.33032  -0.30993  -0.30369  -0.30086
 Alpha  occ. eigenvalues --   -0.28475  -0.27449  -0.25108  -0.24101  -0.22456
 Alpha  occ. eigenvalues --   -0.22069  -0.21524  -0.20522  -0.20226  -0.19074
 Alpha  occ. eigenvalues --   -0.18352  -0.17155  -0.15515
 Alpha virt. eigenvalues --    0.10797   0.14749   0.15675   0.15983   0.18863
 Alpha virt. eigenvalues --    0.19645   0.20856   0.21921   0.23107   0.24585
 Alpha virt. eigenvalues --    0.26282   0.26720   0.29355   0.30211   0.32445
 Alpha virt. eigenvalues --    0.38486   0.40193   0.42565   0.45784   0.47449
 Alpha virt. eigenvalues --    0.47987   0.50298   0.52023   0.60260   0.63000
 Alpha virt. eigenvalues --    0.63178   0.69461   0.70848   0.71513   0.76462
 Alpha virt. eigenvalues --    0.78847   0.80603   0.84809   0.84988   0.87294
 Alpha virt. eigenvalues --    0.87401   0.89162   0.90470   0.91579   0.94475
 Alpha virt. eigenvalues --    0.95037   0.97465   0.98414   0.99439   1.01935
 Alpha virt. eigenvalues --    1.04585   1.06190   1.06412   1.08147   1.08976
 Alpha virt. eigenvalues --    1.09567   1.11625   1.12453   1.13202   1.13292
 Alpha virt. eigenvalues --    1.14476   1.17025   1.18906   1.21528   1.23501
 Alpha virt. eigenvalues --    1.24308   1.27020   1.27707   1.28711   1.30858
 Alpha virt. eigenvalues --    1.38145   1.39851   1.43486   1.48027   1.50171
 Alpha virt. eigenvalues --    1.50579   1.57491   1.59827   1.62496   1.67323
 Alpha virt. eigenvalues --    1.68010   1.71571   1.74233   1.80359   1.82792
 Alpha virt. eigenvalues --    1.85496   1.87392   1.88419   1.89314   1.89508
 Alpha virt. eigenvalues --    1.90575   1.91202   1.92446   1.93359   1.93852
 Alpha virt. eigenvalues --    1.95225   1.95643   1.97452   1.99165   2.05331
 Alpha virt. eigenvalues --    2.06230   2.06857   2.08505   2.09658   2.11008
 Alpha virt. eigenvalues --    2.12549   2.15839   2.18531   2.20103   2.21018
 Alpha virt. eigenvalues --    2.26210   2.30809   2.35628   2.36703   2.38300
 Alpha virt. eigenvalues --    2.43483   2.48390   2.52311   2.54467   2.54807
 Alpha virt. eigenvalues --    2.58902   2.68256   2.71552   2.73594   2.75024
 Alpha virt. eigenvalues --    2.79303   2.83452   2.85919   2.88422   2.89615
 Alpha virt. eigenvalues --    2.90750   2.91794   3.02506   3.06098   3.25179
 Alpha virt. eigenvalues --    3.42695   3.47670   3.48587   3.54300   3.59195
 Alpha virt. eigenvalues --    3.66162   3.84239   3.85042   3.92641   3.97308
 Alpha virt. eigenvalues --    4.07748   4.12156   4.24536   4.44336   4.62716
     Molecular Orbital Coefficients:
                           1         2         3         4         5
                           O         O         O         O         O
     Eigenvalues --   -77.11938 -77.08604 -19.10648 -19.08094 -19.03500
   1 1   C  1S         -0.00001  -0.00001  -0.00003   0.00000  -0.00003
   2        2S         -0.00002   0.00001  -0.00016   0.00008  -0.00011
   3        2PX         0.00001  -0.00001   0.00002   0.00004   0.00007
   4        2PY         0.00003   0.00004   0.00000   0.00002   0.00005
   5        2PZ        -0.00001  -0.00002   0.00004   0.00008  -0.00002
   6        3S          0.00003  -0.00010   0.00099   0.00026   0.00021
   7        3PX         0.00004  -0.00011  -0.00027  -0.00022  -0.00055
   8        3PY         0.00014   0.00016  -0.00042  -0.00027  -0.00029
   9        3PZ        -0.00014  -0.00011   0.00020  -0.00032  -0.00003
  10        4XX        -0.00001  -0.00002  -0.00002   0.00002  -0.00004
  11        4YY        -0.00003  -0.00005  -0.00002   0.00001  -0.00004
  12        4ZZ        -0.00003  -0.00003  -0.00002  -0.00007  -0.00003
  13        4XY         0.00000   0.00002   0.00001  -0.00001   0.00000
  14        4XZ         0.00002  -0.00002  -0.00001  -0.00000   0.00001
  15        4YZ         0.00001   0.00001  -0.00002   0.00000   0.00000
  16 2   H  1S          0.00001   0.00002  -0.00008  -0.00004  -0.00001
  17        2S         -0.00021  -0.00012  -0.00002  -0.00029  -0.00002
  18        3PX         0.00002  -0.00001   0.00001   0.00001   0.00001
  19        3PY         0.00002   0.00001   0.00001   0.00002  -0.00002
  20        3PZ        -0.00002  -0.00001  -0.00000  -0.00001  -0.00001
  21 3   H  1S         -0.00001   0.00002  -0.00001   0.00007   0.00006
  22        2S         -0.00001  -0.00014   0.00014   0.00017   0.00032
  23        3PX         0.00000  -0.00001  -0.00001   0.00000  -0.00002
  24        3PY        -0.00001   0.00003  -0.00000  -0.00001  -0.00002
  25        3PZ         0.00001  -0.00001   0.00000   0.00005  -0.00000
  26 4   C  1S         -0.00004  -0.00005  -0.00000  -0.00002  -0.00003
  27        2S         -0.00004  -0.00013  -0.00003   0.00004  -0.00017
  28        2PX        -0.00005   0.00005  -0.00008   0.00002   0.00001
  29        2PY        -0.00001  -0.00002   0.00005   0.00015  -0.00002
  30        2PZ        -0.00001   0.00001  -0.00004   0.00025   0.00005
  31        3S          0.00097   0.00125   0.00021  -0.00090   0.00093
  32        3PX        -0.00032   0.00047  -0.00009  -0.00033  -0.00052
  33        3PY        -0.00018  -0.00014  -0.00074  -0.00057  -0.00020
  34        3PZ         0.00007  -0.00004   0.00031  -0.00067  -0.00035
  35        4XX        -0.00014  -0.00010   0.00006   0.00003   0.00001
  36        4YY        -0.00010  -0.00009  -0.00000   0.00006  -0.00002
  37        4ZZ        -0.00007  -0.00007  -0.00001   0.00025  -0.00003
  38        4XY        -0.00005   0.00001   0.00003   0.00002   0.00003
  39        4XZ        -0.00001   0.00000  -0.00001  -0.00001   0.00001
  40        4YZ        -0.00001  -0.00000   0.00002   0.00013   0.00002
  41 5   O  1S          0.00000   0.00000  -0.00003   0.99275   0.00002
  42        2S          0.00001   0.00001  -0.00013   0.02581   0.00004
  43        2PX        -0.00000  -0.00001   0.00002   0.00048  -0.00003
  44        2PY         0.00001   0.00001   0.00003  -0.00060  -0.00003
  45        2PZ         0.00002   0.00001   0.00000  -0.00031  -0.00000
  46        3S         -0.00024  -0.00020   0.00052   0.01220  -0.00010
  47        3PX         0.00012  -0.00003  -0.00020   0.00009   0.00016
  48        3PY         0.00004   0.00003  -0.00009  -0.00035   0.00009
  49        3PZ         0.00009   0.00015  -0.00008  -0.00027   0.00003
  50        4XX         0.00001   0.00001  -0.00005  -0.00805   0.00006
  51        4YY        -0.00001  -0.00002  -0.00008  -0.00808   0.00003
  52        4ZZ        -0.00000  -0.00000  -0.00009  -0.00816   0.00004
  53        4XY         0.00002  -0.00003   0.00003  -0.00003  -0.00002
  54        4XZ        -0.00001   0.00002   0.00002   0.00003  -0.00001
  55        4YZ         0.00001  -0.00000  -0.00002  -0.00007  -0.00000
  56 6   H  1S          0.00002  -0.00000  -0.00007   0.00030   0.00003
  57        2S         -0.00014  -0.00021   0.00011  -0.00178  -0.00014
  58        3PX         0.00001   0.00002   0.00001   0.00008   0.00001
  59        3PY         0.00001  -0.00001   0.00002  -0.00004  -0.00002
  60        3PZ         0.00002  -0.00003   0.00001   0.00011   0.00001
  61 7   P  1S         -0.00003   0.99625   0.00000   0.00000  -0.00000
  62        2S          0.00001   0.01417   0.00001  -0.00001  -0.00003
  63        2PX        -0.00001  -0.00003  -0.00001  -0.00000  -0.00001
  64        2PY         0.00000   0.00002  -0.00000   0.00000  -0.00000
  65        2PZ        -0.00000   0.00001   0.00000  -0.00001  -0.00001
  66        3S          0.00015  -0.02713   0.00003  -0.00000  -0.00007
  67        3PX         0.00007   0.00014   0.00003  -0.00003   0.00007
  68        3PY        -0.00001  -0.00009   0.00001  -0.00001   0.00004
  69        3PZ         0.00004  -0.00002  -0.00001   0.00011   0.00007
  70        4S         -0.00036   0.00252  -0.00028   0.00050   0.00044
  71        4PX         0.00020  -0.00014   0.00015  -0.00019  -0.00016
  72        4PY         0.00013  -0.00003   0.00009  -0.00014   0.00007
  73        4PZ         0.00004  -0.00001   0.00010   0.00036  -0.00007
  74        5XX        -0.00010   0.00941  -0.00004  -0.00002  -0.00005
  75        5YY        -0.00003   0.00943   0.00000   0.00000  -0.00003
  76        5ZZ        -0.00002   0.00945  -0.00000   0.00001  -0.00003
  77        5XY         0.00000   0.00003   0.00000  -0.00002  -0.00002
  78        5XZ         0.00002   0.00002   0.00003   0.00003  -0.00002
  79        5YZ        -0.00001  -0.00001  -0.00002  -0.00002   0.00001
  80 8   P  1S          0.99625   0.00003   0.00001   0.00001   0.00002
  81        2S          0.01417   0.00001   0.00003   0.00008  -0.00002
  82        2PX        -0.00001   0.00001   0.00004  -0.00001  -0.00001
  83        2PY         0.00003   0.00000  -0.00006  -0.00001  -0.00000
  84        2PZ         0.00001   0.00000  -0.00003   0.00001   0.00003
  85        3S         -0.02719   0.00014   0.00009   0.00044   0.00092
  86        3PX        -0.00008  -0.00007   0.00009   0.00012   0.00008
  87        3PY        -0.00012  -0.00005   0.00023   0.00016   0.00008
  88        3PZ        -0.00002  -0.00001   0.00006  -0.00002  -0.00022
  89        4S          0.00291  -0.00026  -0.00307  -0.00178  -0.00399
  90        4PX         0.00032  -0.00019   0.00041  -0.00036   0.00011
  91        4PY         0.00013   0.00010  -0.00121  -0.00067  -0.00071
  92        4PZ        -0.00017   0.00004  -0.00108  -0.00056   0.00237
  93        5XX         0.00940  -0.00011   0.00020   0.00000  -0.00019
  94        5YY         0.00942  -0.00000   0.00021   0.00003  -0.00024
  95        5ZZ         0.00947  -0.00002   0.00002  -0.00003  -0.00004
  96        5XY        -0.00002  -0.00002  -0.00011   0.00002   0.00000
  97        5XZ        -0.00001   0.00000  -0.00006   0.00000   0.00004
  98        5YZ         0.00000  -0.00000   0.00011   0.00000   0.00005
  99 9   O  1S          0.00000  -0.00000   0.00000  -0.00000  -0.00001
 100        2S          0.00001  -0.00005   0.00002   0.00004   0.00002
 101        2PX        -0.00001   0.00002  -0.00000   0.00000  -0.00001
 102        2PY         0.00000  -0.00003   0.00002  -0.00000  -0.00001
 103        2PZ        -0.00001   0.00013  -0.00000  -0.00005  -0.00001
 104        3S         -0.00001   0.00069  -0.00010  -0.00013  -0.00011
 105        3PX         0.00001  -0.00006   0.00000  -0.00009   0.00004
 106        3PY        -0.00002   0.00011  -0.00007   0.00012   0.00003
 107        3PZ         0.00004  -0.00040   0.00000   0.00030   0.00006
 108        4XX         0.00001  -0.00000   0.00001   0.00003   0.00002
 109        4YY         0.00003   0.00001   0.00002   0.00002   0.00003
 110        4ZZ         0.00001  -0.00023   0.00002   0.00000   0.00002
 111        4XY        -0.00000   0.00001   0.00001   0.00002  -0.00001
 112        4XZ        -0.00001  -0.00007   0.00000  -0.00003  -0.00001
 113        4YZ         0.00001   0.00005   0.00001   0.00002   0.00000
 114 10  O  1S          0.00000   0.00000  -0.00004  -0.00003  -0.01189
 115        2S         -0.00006   0.00001  -0.00022  -0.00019  -0.00027
 116        2PX         0.00001   0.00001  -0.00001  -0.00001   0.00001
 117        2PY        -0.00012   0.00001  -0.00002  -0.00005   0.00003
 118        2PZ         0.00012   0.00001  -0.00005  -0.00002   0.00005
 119        3S          0.00064  -0.00003   0.00128   0.00091  -0.00033
 120        3PX        -0.00007  -0.00003   0.00000   0.00007  -0.00006
 121        3PY         0.00030  -0.00004   0.00039   0.00032  -0.00004
 122        3PZ        -0.00029  -0.00001   0.00004   0.00002  -0.00038
 123        4XX         0.00003   0.00001  -0.00016  -0.00014   0.00016
 124        4YY        -0.00011   0.00002  -0.00013  -0.00009   0.00015
 125        4ZZ        -0.00008   0.00002  -0.00015  -0.00015   0.00018
 126        4XY        -0.00002  -0.00000   0.00006   0.00001  -0.00002
 127        4XZ         0.00001   0.00000   0.00002  -0.00000  -0.00001
 128        4YZ         0.00015   0.00001  -0.00001  -0.00000  -0.00005
 129 11  O  1S         -0.00002  -0.00000   0.99274  -0.00004  -0.00002
 130        2S         -0.00006  -0.00001   0.02582  -0.00018  -0.00016
 131        2PX        -0.00001  -0.00001  -0.00006  -0.00001  -0.00002
 132        2PY         0.00003  -0.00000   0.00003   0.00002   0.00001
 133        2PZ         0.00003   0.00000  -0.00092   0.00000   0.00003
 134        3S          0.00083   0.00000   0.01219   0.00088   0.00088
 135        3PX         0.00014   0.00004   0.00054   0.00023   0.00026
 136        3PY        -0.00025   0.00002  -0.00035  -0.00012  -0.00016
 137        3PZ        -0.00025  -0.00001   0.00004   0.00001  -0.00030
 138        4XX        -0.00016  -0.00000  -0.00808  -0.00008  -0.00006
 139        4YY        -0.00012  -0.00001  -0.00811  -0.00011  -0.00009
 140        4ZZ        -0.00003  -0.00001  -0.00806  -0.00009  -0.00012
 141        4XY         0.00008  -0.00000  -0.00000  -0.00001   0.00001
 142        4XZ         0.00009  -0.00000   0.00004   0.00001  -0.00003
 143        4YZ        -0.00007   0.00000  -0.00004  -0.00002  -0.00001
 144 12  O  1S         -0.00000  -0.00000  -0.00000  -0.00001  -0.00001
 145        2S         -0.00001  -0.00007  -0.00001  -0.00008   0.00004
 146        2PX         0.00001   0.00009   0.00001   0.00002  -0.00001
 147        2PY         0.00000   0.00011   0.00001   0.00000  -0.00000
 148        2PZ         0.00000  -0.00007   0.00000  -0.00000  -0.00000
 149        3S          0.00003   0.00074   0.00005   0.00034  -0.00020
 150        3PX        -0.00006  -0.00027  -0.00004  -0.00008   0.00004
 151        3PY        -0.00002  -0.00031  -0.00002  -0.00004   0.00002
 152        3PZ        -0.00002   0.00020  -0.00002  -0.00001   0.00001
 153        4XX        -0.00000  -0.00009  -0.00001  -0.00006   0.00004
 154        4YY        -0.00000  -0.00010  -0.00001  -0.00006   0.00003
 155        4ZZ        -0.00001  -0.00004  -0.00002  -0.00008   0.00003
 156        4XY         0.00001  -0.00012   0.00000   0.00001  -0.00000
 157        4XZ        -0.00000   0.00008   0.00000  -0.00001  -0.00000
 158        4YZ        -0.00000   0.00008   0.00000   0.00000  -0.00000
 159 13  O  1S         -0.00001   0.00000  -0.00001   0.00001   0.00002
 160        2S         -0.00002  -0.00005  -0.00004   0.00004  -0.00006
 161        2PX        -0.00002  -0.00002  -0.00001  -0.00000   0.00004
 162        2PY        -0.00000  -0.00013  -0.00001  -0.00000  -0.00001
 163        2PZ        -0.00001  -0.00009  -0.00000   0.00002  -0.00000
 164        3S          0.00016   0.00060   0.00020  -0.00019   0.00022
 165        3PX         0.00007   0.00007   0.00004   0.00003  -0.00015
 166        3PY         0.00003   0.00036   0.00005   0.00001   0.00004
 167        3PZ         0.00004   0.00024   0.00003  -0.00011   0.00001
 168        4XX        -0.00004   0.00003  -0.00003   0.00003  -0.00004
 169        4YY        -0.00000  -0.00015  -0.00001   0.00004  -0.00006
 170        4ZZ        -0.00000  -0.00005  -0.00001   0.00001  -0.00008
 171        4XY         0.00001  -0.00003   0.00000   0.00001  -0.00002
 172        4XZ         0.00000  -0.00002  -0.00000  -0.00000   0.00000
 173        4YZ         0.00000  -0.00013  -0.00000  -0.00001   0.00002
 174 14  O  1S          0.00002   0.00000  -0.00003  -0.00000   0.99266
 175        2S         -0.00000  -0.00000  -0.00006   0.00000   0.02556
 176        2PX        -0.00002   0.00001   0.00003  -0.00000   0.00011
 177        2PY        -0.00002   0.00001  -0.00004  -0.00002   0.00011
 178        2PZ        -0.00016   0.00000   0.00000   0.00000   0.00066
 179        3S          0.00034   0.00002   0.00038  -0.00002   0.01289
 180        3PX        -0.00001  -0.00001  -0.00010   0.00003   0.00021
 181        3PY         0.00005  -0.00002   0.00025   0.00011   0.00032
 182        3PZ         0.00039  -0.00001   0.00018   0.00004   0.00054
 183        4XX         0.00006   0.00000  -0.00005   0.00001  -0.00817
 184        4YY         0.00007   0.00002  -0.00003   0.00002  -0.00816
 185        4ZZ        -0.00015   0.00000  -0.00002   0.00002  -0.00818
 186        4XY        -0.00002  -0.00000   0.00004  -0.00000   0.00000
 187        4XZ        -0.00008  -0.00000   0.00002  -0.00000  -0.00000
 188        4YZ        -0.00006  -0.00001  -0.00000   0.00001   0.00002
 189 15  H  1S          0.00001  -0.00001  -0.00003   0.00003  -0.00008
 190        2S         -0.00016  -0.00002  -0.00006   0.00002   0.00003
 191        3PX         0.00001   0.00001  -0.00001  -0.00000   0.00001
 192        3PY         0.00003  -0.00001   0.00001   0.00000  -0.00000
 193        3PZ        -0.00001   0.00001   0.00001   0.00005   0.00000
 194 16  H  1S         -0.00011   0.00000   0.00029  -0.00004  -0.00007
 195        2S         -0.00022  -0.00002  -0.00087   0.00012   0.00042
 196        3PX         0.00001  -0.00000  -0.00010   0.00001   0.00002
 197        3PY        -0.00000  -0.00000   0.00008   0.00000  -0.00000
 198        3PZ        -0.00002   0.00000  -0.00013   0.00000  -0.00002
                           6         7         8         9        10
                           O         O         O         O         O
     Eigenvalues --   -19.03474 -19.01348 -19.00671 -19.00478 -10.16939
   1 1   C  1S          0.00002   0.00000  -0.00003   0.00002   0.00347
   2        2S          0.00009   0.00003  -0.00010   0.00004  -0.00011
   3        2PX        -0.00006   0.00000  -0.00002   0.00002  -0.00006
   4        2PY        -0.00006   0.00001   0.00004  -0.00000  -0.00006
   5        2PZ        -0.00000  -0.00003   0.00002  -0.00002  -0.00004
   6        3S         -0.00023  -0.00023   0.00064  -0.00049   0.00577
   7        3PX         0.00051  -0.00022   0.00020   0.00009   0.00049
   8        3PY         0.00038   0.00004  -0.00028   0.00036  -0.00115
   9        3PZ        -0.00006  -0.00004   0.00029   0.00004   0.00199
  10        4XX         0.00007  -0.00000  -0.00006   0.00008  -0.00012
  11        4YY         0.00004   0.00001  -0.00005   0.00002  -0.00038
  12        4ZZ         0.00004  -0.00002  -0.00002   0.00002  -0.00024
  13        4XY         0.00001   0.00001   0.00001  -0.00001   0.00003
  14        4XZ         0.00001  -0.00002   0.00001  -0.00001  -0.00002
  15        4YZ         0.00001   0.00000  -0.00003   0.00001   0.00017
  16 2   H  1S          0.00008   0.00004  -0.00008   0.00002  -0.00006
  17        2S         -0.00014  -0.00006   0.00024   0.00028  -0.00018
  18        3PX        -0.00002   0.00001  -0.00001   0.00003  -0.00001
  19        3PY        -0.00001   0.00000   0.00001  -0.00001   0.00002
  20        3PZ        -0.00001   0.00000   0.00002   0.00002  -0.00000
  21 3   H  1S         -0.00006   0.00000  -0.00002   0.00007  -0.00027
  22        2S         -0.00029   0.00018  -0.00017  -0.00021  -0.00064
  23        3PX         0.00003  -0.00000  -0.00001   0.00003   0.00001
  24        3PY         0.00001  -0.00001   0.00002   0.00002  -0.00003
  25        3PZ         0.00001  -0.00001  -0.00001   0.00001   0.00001
  26 4   C  1S         -0.00001  -0.00004  -0.00002  -0.00002   0.99327
  27        2S         -0.00011  -0.00019  -0.00012  -0.00013   0.04985
  28        2PX        -0.00001  -0.00004   0.00003  -0.00002  -0.00025
  29        2PY         0.00001  -0.00000   0.00006  -0.00003   0.00058
  30        2PZ        -0.00005   0.00002   0.00003  -0.00001   0.00056
  31        3S          0.00061   0.00135   0.00044   0.00078  -0.02044
  32        3PX        -0.00023   0.00073   0.00001   0.00046   0.00041
  33        3PY        -0.00022   0.00007  -0.00097   0.00011  -0.00186
  34        3PZ         0.00022   0.00040  -0.00017  -0.00059  -0.00022
  35        4XX         0.00001  -0.00004   0.00002   0.00001  -0.00858
  36        4YY         0.00003  -0.00003  -0.00001  -0.00003  -0.00857
  37        4ZZ        -0.00000   0.00000  -0.00005  -0.00005  -0.00842
  38        4XY         0.00002  -0.00002  -0.00003  -0.00002  -0.00001
  39        4XZ        -0.00000  -0.00002  -0.00000  -0.00002   0.00002
  40        4YZ        -0.00000   0.00003   0.00001  -0.00003  -0.00001
  41 5   O  1S         -0.00004   0.00001   0.00000  -0.00005  -0.00014
  42        2S         -0.00009   0.00002  -0.00001  -0.00015  -0.00041
  43        2PX         0.00003  -0.00002   0.00002  -0.00003  -0.00001
  44        2PY         0.00003  -0.00004  -0.00000   0.00001   0.00003
  45        2PZ        -0.00000  -0.00004  -0.00000   0.00004   0.00013
  46        3S          0.00025  -0.00002   0.00013   0.00060   0.00398
  47        3PX        -0.00017   0.00025  -0.00007   0.00005  -0.00003
  48        3PY        -0.00008   0.00003   0.00006  -0.00008  -0.00010
  49        3PZ         0.00003   0.00044  -0.00009  -0.00023  -0.00100
  50        4XX        -0.00008   0.00005  -0.00000  -0.00010  -0.00016
  51        4YY        -0.00007   0.00001  -0.00001  -0.00012  -0.00031
  52        4ZZ        -0.00009  -0.00004   0.00003  -0.00009  -0.00071
  53        4XY         0.00005  -0.00002  -0.00000   0.00000   0.00001
  54        4XZ        -0.00001   0.00004   0.00000  -0.00001   0.00002
  55        4YZ        -0.00001  -0.00006  -0.00001   0.00003  -0.00028
  56 6   H  1S          0.00000  -0.00015   0.00003  -0.00007   0.00005
  57        2S          0.00005  -0.00067  -0.00005   0.00022  -0.00020
  58        3PX        -0.00002  -0.00001  -0.00001  -0.00001  -0.00001
  59        3PY         0.00003   0.00000   0.00000   0.00002  -0.00009
  60        3PZ        -0.00001   0.00004   0.00001  -0.00001  -0.00014
  61 7   P  1S         -0.00000   0.00001   0.00001   0.00001   0.00001
  62        2S         -0.00002  -0.00004  -0.00006  -0.00006  -0.00008
  63        2PX        -0.00000  -0.00000   0.00001  -0.00001   0.00004
  64        2PY         0.00000   0.00001   0.00002  -0.00002  -0.00003
  65        2PZ         0.00000  -0.00003   0.00002   0.00001   0.00000
  66        3S         -0.00006   0.00055   0.00058   0.00056  -0.00007
  67        3PX         0.00004  -0.00004  -0.00007   0.00007  -0.00045
  68        3PY         0.00001  -0.00004  -0.00010   0.00016   0.00032
  69        3PZ         0.00000   0.00014  -0.00014  -0.00007  -0.00000
  70        4S          0.00025  -0.00338  -0.00280  -0.00279   0.00388
  71        4PX        -0.00014   0.00037   0.00072  -0.00082  -0.00120
  72        4PY        -0.00005   0.00016   0.00138  -0.00160   0.00133
  73        4PZ         0.00003  -0.00173   0.00095   0.00060   0.00057
  74        5XX        -0.00002  -0.00014  -0.00020  -0.00008   0.00007
  75        5YY        -0.00004  -0.00024  -0.00002  -0.00007   0.00010
  76        5ZZ        -0.00003   0.00009  -0.00018  -0.00019  -0.00002
  77        5XY         0.00001  -0.00004   0.00001   0.00012  -0.00008
  78        5XZ        -0.00001   0.00009   0.00005  -0.00010  -0.00001
  79        5YZ        -0.00001  -0.00009   0.00017  -0.00011   0.00005
  80 8   P  1S          0.00001  -0.00000  -0.00000   0.00000   0.00000
  81        2S         -0.00009  -0.00004  -0.00000   0.00000  -0.00010
  82        2PX        -0.00001   0.00001   0.00000  -0.00000  -0.00003
  83        2PY         0.00001  -0.00000   0.00000   0.00000  -0.00002
  84        2PZ        -0.00002   0.00001   0.00001  -0.00001  -0.00002
  85        3S          0.00056  -0.00010  -0.00004  -0.00000  -0.00010
  86        3PX         0.00008  -0.00008  -0.00002   0.00003   0.00049
  87        3PY        -0.00014  -0.00000   0.00001   0.00000   0.00025
  88        3PZ         0.00017  -0.00006  -0.00003   0.00005   0.00010
  89        4S         -0.00238   0.00083  -0.00063   0.00004   0.00475
  90        4PX        -0.00037   0.00044  -0.00021  -0.00020   0.00099
  91        4PY         0.00158  -0.00006  -0.00005   0.00035   0.00205
  92        4PZ        -0.00202   0.00020   0.00031  -0.00017   0.00017
  93        5XX        -0.00022  -0.00004   0.00000   0.00000  -0.00007
  94        5YY        -0.00015  -0.00003   0.00001   0.00001  -0.00003
  95        5ZZ        -0.00015  -0.00004  -0.00004   0.00002   0.00008
  96        5XY        -0.00003   0.00001  -0.00004  -0.00001   0.00007
  97        5XZ        -0.00001  -0.00002  -0.00004   0.00004   0.00004
  98        5YZ        -0.00012  -0.00002   0.00001   0.00003   0.00001
  99 9   O  1S          0.00000   0.99275   0.00009   0.00014   0.00005
 100        2S          0.00000   0.02564  -0.00009  -0.00007   0.00021
 101        2PX         0.00001  -0.00013   0.00003  -0.00005   0.00003
 102        2PY         0.00000   0.00012   0.00005  -0.00004   0.00001
 103        2PZ        -0.00001  -0.00056  -0.00001  -0.00001   0.00001
 104        3S         -0.00003   0.01232   0.00053   0.00045  -0.00132
 105        3PX        -0.00002  -0.00033  -0.00017   0.00019   0.00000
 106        3PY        -0.00001   0.00021  -0.00026   0.00028  -0.00016
 107        3PZ         0.00001  -0.00042  -0.00022  -0.00020   0.00018
 108        4XX         0.00000  -0.00810  -0.00003  -0.00005   0.00020
 109        4YY        -0.00001  -0.00809  -0.00010  -0.00003   0.00011
 110        4ZZ        -0.00000  -0.00814  -0.00003  -0.00001   0.00015
 111        4XY         0.00001  -0.00002  -0.00001  -0.00003  -0.00009
 112        4XZ        -0.00000  -0.00001   0.00002   0.00000   0.00002
 113        4YZ        -0.00000   0.00002   0.00000  -0.00002   0.00001
 114 10  O  1S          0.99267   0.00001  -0.00005  -0.00002   0.00003
 115        2S          0.02562   0.00005  -0.00008  -0.00006   0.00016
 116        2PX        -0.00001  -0.00002  -0.00004   0.00001   0.00002
 117        2PY         0.00052   0.00001   0.00001  -0.00000   0.00002
 118        2PZ        -0.00048  -0.00000   0.00002   0.00000   0.00003
 119        3S          0.01256  -0.00033   0.00035   0.00030  -0.00082
 120        3PX         0.00010   0.00004   0.00015  -0.00001  -0.00019
 121        3PY         0.00042  -0.00006   0.00002   0.00002  -0.00040
 122        3PZ        -0.00027   0.00004  -0.00014  -0.00004  -0.00002
 123        4XX        -0.00813   0.00004  -0.00006  -0.00004   0.00010
 124        4YY        -0.00812   0.00001  -0.00008  -0.00004   0.00003
 125        4ZZ        -0.00813   0.00001  -0.00006  -0.00003   0.00010
 126        4XY         0.00000   0.00000   0.00000   0.00000   0.00003
 127        4XZ        -0.00000   0.00000  -0.00002   0.00000   0.00004
 128        4YZ         0.00001  -0.00001  -0.00002   0.00000   0.00001
 129 11  O  1S         -0.00004   0.00001  -0.00000   0.00000   0.00002
 130        2S         -0.00010   0.00001  -0.00002   0.00002   0.00013
 131        2PX         0.00002   0.00001  -0.00001  -0.00000  -0.00003
 132        2PY         0.00000   0.00000  -0.00000  -0.00001  -0.00004
 133        2PZ        -0.00004   0.00001   0.00001  -0.00000   0.00003
 134        3S          0.00062  -0.00008   0.00007  -0.00012  -0.00092
 135        3PX         0.00001  -0.00006   0.00006  -0.00001  -0.00026
 136        3PY        -0.00017   0.00001   0.00002   0.00004   0.00029
 137        3PZ         0.00022  -0.00005  -0.00006   0.00003  -0.00012
 138        4XX        -0.00007   0.00001  -0.00001   0.00001   0.00011
 139        4YY        -0.00011   0.00001  -0.00002   0.00001   0.00003
 140        4ZZ        -0.00010   0.00002  -0.00001   0.00000  -0.00000
 141        4XY         0.00001   0.00000   0.00001   0.00000   0.00004
 142        4XZ         0.00002  -0.00000  -0.00000   0.00000   0.00001
 143        4YZ         0.00003   0.00000  -0.00000  -0.00000   0.00001
 144 12  O  1S          0.00000  -0.00017  -0.00080   0.99278   0.00006
 145        2S         -0.00001  -0.00008  -0.00006   0.02573   0.00027
 146        2PX        -0.00000  -0.00002  -0.00000  -0.00037   0.00000
 147        2PY        -0.00000  -0.00002   0.00002  -0.00044   0.00001
 148        2PZ        -0.00000  -0.00004   0.00006   0.00026   0.00001
 149        3S          0.00007   0.00046   0.00028   0.01194  -0.00149
 150        3PX         0.00000  -0.00008  -0.00012  -0.00037   0.00030
 151        3PY         0.00001  -0.00004  -0.00025  -0.00021   0.00002
 152        3PZ         0.00001   0.00034  -0.00021   0.00024  -0.00021
 153        4XX        -0.00001  -0.00002   0.00002  -0.00804   0.00018
 154        4YY        -0.00002  -0.00002  -0.00000  -0.00805   0.00021
 155        4ZZ        -0.00002  -0.00005  -0.00003  -0.00803   0.00012
 156        4XY        -0.00000   0.00000   0.00001  -0.00002  -0.00004
 157        4XZ        -0.00000  -0.00004   0.00001   0.00000  -0.00001
 158        4YZ        -0.00000  -0.00001  -0.00003   0.00001   0.00000
 159 13  O  1S          0.00002  -0.00015   0.99277   0.00079   0.00004
 160        2S         -0.00005  -0.00014   0.02572  -0.00000   0.00016
 161        2PX         0.00004   0.00000   0.00012  -0.00001  -0.00006
 162        2PY         0.00000   0.00003   0.00053  -0.00001   0.00001
 163        2PZ        -0.00002  -0.00005   0.00034   0.00005   0.00001
 164        3S          0.00017   0.00078   0.01196   0.00020  -0.00076
 165        3PX        -0.00011  -0.00001  -0.00008   0.00012   0.00033
 166        3PY         0.00000   0.00007   0.00042   0.00026  -0.00029
 167        3PZ         0.00006   0.00042   0.00026  -0.00016  -0.00015
 168        4XX        -0.00003  -0.00007  -0.00804  -0.00001   0.00013
 169        4YY        -0.00006  -0.00007  -0.00806   0.00002   0.00007
 170        4ZZ        -0.00006  -0.00007  -0.00804  -0.00003   0.00008
 171        4XY         0.00001  -0.00000  -0.00001  -0.00002   0.00001
 172        4XZ        -0.00002  -0.00001  -0.00001   0.00003   0.00002
 173        4YZ         0.00002   0.00005  -0.00001   0.00001  -0.00002
 174 14  O  1S          0.01193   0.00002  -0.00007   0.00003   0.00006
 175        2S          0.00041   0.00004  -0.00015   0.00004   0.00025
 176        2PX         0.00000   0.00002  -0.00002  -0.00000   0.00001
 177        2PY         0.00008  -0.00001   0.00000   0.00002   0.00006
 178        2PZ         0.00001   0.00001  -0.00001  -0.00000  -0.00001
 179        3S         -0.00041  -0.00018   0.00072  -0.00018  -0.00132
 180        3PX         0.00002  -0.00010   0.00012   0.00002  -0.00022
 181        3PY        -0.00038   0.00003   0.00001  -0.00010  -0.00042
 182        3PZ         0.00018  -0.00006   0.00012  -0.00001  -0.00022
 183        4XX         0.00001   0.00003  -0.00010   0.00003   0.00016
 184        4YY        -0.00004   0.00003  -0.00012   0.00003   0.00012
 185        4ZZ         0.00005   0.00003  -0.00010   0.00003   0.00014
 186        4XY        -0.00001   0.00000  -0.00001  -0.00000   0.00003
 187        4XZ         0.00001  -0.00001   0.00001   0.00001  -0.00002
 188        4YZ        -0.00001   0.00000   0.00001  -0.00001  -0.00005
 189 15  H  1S          0.00006  -0.00001  -0.00000   0.00001  -0.00020
 190        2S          0.00002  -0.00006   0.00013  -0.00005  -0.00039
 191        3PX        -0.00002   0.00000   0.00002  -0.00002  -0.00001
 192        3PY        -0.00002   0.00000  -0.00001  -0.00000  -0.00005
 193        3PZ        -0.00000   0.00000  -0.00001   0.00001   0.00000
 194 16  H  1S          0.00006  -0.00002  -0.00002   0.00001   0.00001
 195        2S         -0.00031   0.00003   0.00004  -0.00010  -0.00066
 196        3PX        -0.00002  -0.00000  -0.00000  -0.00001  -0.00009
 197        3PY         0.00003  -0.00000  -0.00000   0.00000   0.00002
 198        3PZ         0.00004  -0.00001  -0.00000   0.00000   0.00001
                          11        12        13        14        15
                           O         O         O         O         O
     Eigenvalues --   -10.13921  -6.56798  -6.53315  -4.73328  -4.73013
   1 1   C  1S          0.99297  -0.00003  -0.00002   0.00002  -0.00004
   2        2S          0.05000  -0.00024  -0.00022   0.00004  -0.00007
   3        2PX        -0.00014   0.00009  -0.00006  -0.00002   0.00012
   4        2PY         0.00002  -0.00002  -0.00008  -0.00015   0.00018
   5        2PZ        -0.00013   0.00006   0.00007   0.00002  -0.00010
   6        3S         -0.01736   0.00112   0.00120   0.00068  -0.00108
   7        3PX         0.00031  -0.00151   0.00147  -0.00002  -0.00099
   8        3PY         0.00139  -0.00154  -0.00116   0.00026   0.00095
   9        3PZ        -0.00084   0.00078   0.00050   0.00121  -0.00028
  10        4XX        -0.00881  -0.00006   0.00001   0.00011  -0.00013
  11        4YY        -0.00900   0.00010   0.00011  -0.00004  -0.00028
  12        4ZZ        -0.00891  -0.00000   0.00001   0.00017  -0.00003
  13        4XY         0.00001   0.00007  -0.00013   0.00006  -0.00005
  14        4XZ        -0.00001  -0.00010   0.00012  -0.00006  -0.00003
  15        4YZ         0.00017  -0.00009  -0.00006  -0.00009   0.00003
  16 2   H  1S         -0.00007  -0.00019  -0.00015   0.00016   0.00011
  17        2S          0.00246   0.00077   0.00034   0.00022  -0.00081
  18        3PX        -0.00003   0.00002  -0.00004   0.00002   0.00012
  19        3PY        -0.00014  -0.00002   0.00002   0.00004   0.00008
  20        3PZ        -0.00022   0.00007   0.00003  -0.00003  -0.00011
  21 3   H  1S         -0.00014   0.00012  -0.00022  -0.00004   0.00006
  22        2S          0.00231   0.00084   0.00026  -0.00019   0.00046
  23        3PX         0.00021  -0.00003  -0.00001   0.00006  -0.00003
  24        3PY         0.00009   0.00002  -0.00007  -0.00003  -0.00007
  25        3PZ         0.00006  -0.00006   0.00006  -0.00004  -0.00004
  26 4   C  1S         -0.00368   0.00012   0.00020   0.00003   0.00008
  27        2S         -0.00027   0.00083   0.00126  -0.00001   0.00055
  28        2PX        -0.00001   0.00005   0.00002  -0.00026   0.00003
  29        2PY        -0.00009  -0.00005  -0.00003   0.00029  -0.00022
  30        2PZ         0.00002  -0.00005  -0.00008   0.00010   0.00033
  31        3S          0.00362  -0.00453  -0.00610  -0.00090  -0.00267
  32        3PX         0.00024   0.00177  -0.00254   0.00194   0.00045
  33        3PY         0.00205   0.00040   0.00056  -0.00300   0.00197
  34        3PZ        -0.00132  -0.00035   0.00010  -0.00115  -0.00457
  35        4XX        -0.00009   0.00012  -0.00001  -0.00008   0.00011
  36        4YY        -0.00026   0.00020   0.00024   0.00023   0.00012
  37        4ZZ        -0.00016   0.00011   0.00021  -0.00014  -0.00002
  38        4XY         0.00001  -0.00010   0.00021   0.00017  -0.00016
  39        4XZ        -0.00002   0.00000   0.00002   0.00013   0.00036
  40        4YZ         0.00009   0.00001  -0.00003   0.00006  -0.00005
  41 5   O  1S         -0.00001  -0.00008  -0.00004  -0.00001  -0.00006
  42        2S         -0.00007  -0.00040  -0.00022  -0.00009  -0.00039
  43        2PX        -0.00002   0.00011  -0.00003   0.00001  -0.00006
  44        2PY        -0.00004   0.00003  -0.00003  -0.00015  -0.00001
  45        2PZ         0.00007  -0.00001   0.00003   0.00001  -0.00005
  46        3S         -0.00011   0.00221   0.00146   0.00110   0.00291
  47        3PX         0.00000  -0.00109   0.00062  -0.00046  -0.00006
  48        3PY         0.00015  -0.00049  -0.00033   0.00067  -0.00086
  49        3PZ        -0.00016  -0.00081  -0.00087  -0.00073  -0.00086
  50        4XX        -0.00017  -0.00023  -0.00007   0.00002  -0.00014
  51        4YY         0.00001  -0.00020  -0.00004  -0.00016   0.00002
  52        4ZZ         0.00005  -0.00019  -0.00003   0.00010  -0.00009
  53        4XY         0.00001   0.00007  -0.00004   0.00002  -0.00006
  54        4XZ        -0.00000   0.00011  -0.00012   0.00005   0.00004
  55        4YZ        -0.00007   0.00009   0.00004  -0.00006   0.00010
  56 6   H  1S          0.00006  -0.00006  -0.00004   0.00023  -0.00026
  57        2S          0.00011   0.00070   0.00096   0.00036   0.00049
  58        3PX        -0.00004  -0.00006   0.00006  -0.00003  -0.00003
  59        3PY        -0.00000   0.00006  -0.00011   0.00001  -0.00009
  60        3PZ         0.00000  -0.00006  -0.00002  -0.00001  -0.00010
  61 7   P  1S         -0.00000  -0.00000  -0.27422   0.00000  -0.00000
  62        2S         -0.00005  -0.00013   1.02399   0.00009  -0.00005
  63        2PX        -0.00000   0.00002   0.00020   0.00011  -0.00005
  64        2PY         0.00002   0.00001  -0.00032  -0.00002  -0.00003
  65        2PZ         0.00001   0.00000   0.00050   0.00002   0.00012
  66        3S         -0.00007  -0.00070   0.07439   0.00065  -0.00035
  67        3PX         0.00001  -0.00002  -0.00056   0.00045  -0.00025
  68        3PY        -0.00030  -0.00006   0.00037  -0.00019  -0.00010
  69        3PZ        -0.00002  -0.00002   0.00029   0.00010   0.00024
  70        4S          0.00036   0.00253  -0.00970  -0.00376   0.00140
  71        4PX        -0.00031  -0.00166   0.00152   0.00183  -0.00099
  72        4PY        -0.00007  -0.00097  -0.00011   0.00071  -0.00081
  73        4PZ        -0.00009   0.00000  -0.00008  -0.00001   0.00166
  74        5XX        -0.00012   0.00024  -0.01728  -0.00045   0.00016
  75        5YY        -0.00011  -0.00002  -0.01695  -0.00006  -0.00006
  76        5ZZ        -0.00009  -0.00001  -0.01684  -0.00003   0.00004
  77        5XY         0.00001   0.00001   0.00015   0.00007  -0.00001
  78        5XZ         0.00002  -0.00004  -0.00011   0.00001  -0.00019
  79        5YZ         0.00001   0.00003   0.00009  -0.00000   0.00014
  80 8   P  1S         -0.00001  -0.27420  -0.00001   0.00114  -0.00006
  81        2S         -0.00013   1.02402  -0.00010  -0.00456   0.00016
  82        2PX         0.00002  -0.00388  -0.00002  -0.66182   0.21638
  83        2PY        -0.00001   0.00152   0.00000   0.66365  -0.24201
  84        2PZ         0.00000   0.00113   0.00000   0.32435   0.93690
  85        3S         -0.00055   0.07515  -0.00067   0.00004  -0.00034
  86        3PX        -0.00019  -0.00001   0.00002  -0.02020   0.00700
  87        3PY        -0.00008   0.00082  -0.00003   0.02044  -0.00789
  88        3PZ        -0.00005   0.00017  -0.00004   0.00972   0.02989
  89        4S          0.00227  -0.01290   0.00249   0.00347   0.00134
  90        4PX         0.00013  -0.00208   0.00182   0.00536  -0.00153
  91        4PY         0.00148  -0.00201  -0.00068  -0.00373   0.00185
  92        4PZ        -0.00053   0.00081  -0.00015  -0.00142  -0.00319
  93        5XX        -0.00010  -0.01725   0.00028   0.00066  -0.00001
  94        5YY        -0.00007  -0.01704  -0.00013   0.00021   0.00092
  95        5ZZ        -0.00005  -0.01705  -0.00001  -0.00138  -0.00077
  96        5XY        -0.00004  -0.00019   0.00004  -0.00173   0.00026
  97        5XZ        -0.00001   0.00006   0.00001  -0.00081  -0.00081
  98        5YZ        -0.00002  -0.00008  -0.00004   0.00074  -0.00124
  99 9   O  1S         -0.00000   0.00004  -0.00006  -0.00002   0.00005
 100        2S         -0.00001   0.00018   0.00060  -0.00011   0.00025
 101        2PX         0.00000  -0.00002  -0.00009  -0.00002   0.00007
 102        2PY         0.00001  -0.00003   0.00014   0.00004  -0.00003
 103        2PZ        -0.00000  -0.00000  -0.00050   0.00002   0.00002
 104        3S          0.00002  -0.00094  -0.00360   0.00069  -0.00151
 105        3PX         0.00001   0.00029   0.00034  -0.00007  -0.00009
 106        3PY        -0.00001   0.00014  -0.00061  -0.00021   0.00014
 107        3PZ        -0.00002   0.00007   0.00236  -0.00017   0.00009
 108        4XX         0.00001   0.00011   0.00030  -0.00008   0.00019
 109        4YY        -0.00002   0.00007   0.00028  -0.00001   0.00009
 110        4ZZ         0.00001   0.00012   0.00073  -0.00007   0.00014
 111        4XY         0.00000   0.00001   0.00001   0.00001  -0.00003
 112        4XZ         0.00001  -0.00002   0.00015   0.00001   0.00000
 113        4YZ        -0.00002  -0.00005  -0.00010   0.00004  -0.00004
 114 10  O  1S         -0.00004  -0.00013   0.00003   0.00028  -0.00052
 115        2S         -0.00014   0.00062   0.00016   0.00010   0.00121
 116        2PX        -0.00001  -0.00006  -0.00002  -0.00005   0.00005
 117        2PY         0.00001   0.00049  -0.00003  -0.00013   0.00101
 118        2PZ         0.00002  -0.00054  -0.00004   0.00029  -0.00073
 119        3S          0.00067  -0.00356  -0.00098  -0.00072  -0.00532
 120        3PX         0.00004   0.00039  -0.00010   0.00030  -0.00016
 121        3PY        -0.00005  -0.00156   0.00002   0.00011  -0.00331
 122        3PZ        -0.00011   0.00176   0.00025  -0.00106   0.00186
 123        4XX        -0.00012   0.00015   0.00012   0.00029   0.00008
 124        4YY        -0.00012   0.00060   0.00008  -0.00009   0.00041
 125        4ZZ        -0.00011   0.00053   0.00004   0.00044   0.00076
 126        4XY         0.00002   0.00007  -0.00001   0.00019   0.00003
 127        4XZ        -0.00001  -0.00004   0.00002  -0.00015   0.00001
 128        4YZ        -0.00002  -0.00045  -0.00004   0.00009  -0.00060
 129 11  O  1S          0.00006   0.00002   0.00001  -0.00009  -0.00005
 130        2S          0.00025   0.00046   0.00001   0.00135  -0.00030
 131        2PX         0.00005  -0.00001   0.00006   0.00032   0.00007
 132        2PY        -0.00001  -0.00015   0.00004  -0.00028  -0.00010
 133        2PZ         0.00000  -0.00011  -0.00001  -0.00020   0.00021
 134        3S         -0.00116  -0.00293   0.00006  -0.00586   0.00134
 135        3PX        -0.00048  -0.00059  -0.00025  -0.00287  -0.00070
 136        3PY         0.00014   0.00142  -0.00017   0.00251   0.00079
 137        3PZ        -0.00003   0.00140   0.00002   0.00216  -0.00200
 138        4XX         0.00013   0.00038  -0.00000   0.00033  -0.00038
 139        4YY         0.00018   0.00025   0.00004   0.00042  -0.00043
 140        4ZZ         0.00021   0.00004   0.00004   0.00026   0.00037
 141        4XY        -0.00002   0.00014  -0.00000   0.00051   0.00011
 142        4XZ         0.00004  -0.00015   0.00001  -0.00001  -0.00026
 143        4YZ        -0.00004   0.00010   0.00001   0.00002   0.00023
 144 12  O  1S         -0.00003  -0.00000  -0.00008  -0.00002  -0.00006
 145        2S         -0.00012  -0.00001   0.00066  -0.00006  -0.00026
 146        2PX         0.00007  -0.00008  -0.00037   0.00006   0.00000
 147        2PY         0.00001   0.00001  -0.00045   0.00000   0.00004
 148        2PZ         0.00001  -0.00002   0.00026   0.00003   0.00006
 149        3S          0.00047   0.00021  -0.00386   0.00023   0.00137
 150        3PX        -0.00020   0.00032   0.00142  -0.00032  -0.00011
 151        3PY        -0.00012   0.00001   0.00180  -0.00007  -0.00024
 152        3PZ         0.00005   0.00012  -0.00107  -0.00009  -0.00020
 153        4XX        -0.00006  -0.00002   0.00050  -0.00004  -0.00017
 154        4YY        -0.00012  -0.00002   0.00051  -0.00003  -0.00018
 155        4ZZ        -0.00013   0.00002   0.00036  -0.00006  -0.00021
 156        4XY         0.00002  -0.00002   0.00032   0.00003   0.00003
 157        4XZ        -0.00001   0.00001  -0.00021   0.00000   0.00001
 158        4YZ        -0.00004  -0.00000  -0.00018   0.00000   0.00001
 159 13  O  1S          0.00004   0.00004  -0.00011  -0.00000   0.00003
 160        2S          0.00016   0.00019   0.00056  -0.00006   0.00013
 161        2PX        -0.00003   0.00009   0.00009  -0.00015  -0.00003
 162        2PY         0.00005  -0.00001   0.00053   0.00000  -0.00001
 163        2PZ        -0.00000   0.00005   0.00036  -0.00003   0.00007
 164        3S         -0.00074  -0.00125  -0.00324   0.00077  -0.00063
 165        3PX         0.00010  -0.00027  -0.00044   0.00056   0.00017
 166        3PY        -0.00023  -0.00012  -0.00201   0.00014   0.00003
 167        3PZ        -0.00005  -0.00031  -0.00137   0.00021  -0.00043
 168        4XX         0.00015   0.00019   0.00015  -0.00012   0.00012
 169        4YY         0.00012   0.00008   0.00064   0.00005   0.00012
 170        4ZZ         0.00014   0.00002   0.00038   0.00010   0.00005
 171        4XY         0.00002  -0.00001   0.00006   0.00003   0.00004
 172        4XZ        -0.00001  -0.00000   0.00005   0.00002  -0.00002
 173        4YZ        -0.00001   0.00001   0.00032  -0.00003  -0.00003
 174 14  O  1S          0.00006  -0.00022   0.00004   0.00026   0.00055
 175        2S          0.00025   0.00022   0.00018  -0.00008  -0.00130
 176        2PX         0.00002   0.00006   0.00003  -0.00011  -0.00028
 177        2PY         0.00003   0.00007  -0.00004   0.00002  -0.00034
 178        2PZ        -0.00000   0.00068   0.00002  -0.00036  -0.00125
 179        3S         -0.00129  -0.00150  -0.00094   0.00020   0.00572
 180        3PX        -0.00012   0.00007  -0.00029   0.00054   0.00083
 181        3PY        -0.00032  -0.00006   0.00014  -0.00036   0.00125
 182        3PZ        -0.00012  -0.00220  -0.00017   0.00104   0.00378
 183        4XX         0.00015  -0.00005   0.00012   0.00027  -0.00019
 184        4YY         0.00016  -0.00009   0.00008   0.00008  -0.00009
 185        4ZZ         0.00019   0.00054   0.00012  -0.00006  -0.00111
 186        4XY        -0.00001   0.00005   0.00000   0.00001  -0.00006
 187        4XZ         0.00001   0.00025  -0.00003   0.00023  -0.00032
 188        4YZ        -0.00004   0.00017   0.00002  -0.00033  -0.00004
 189 15  H  1S         -0.00010  -0.00022   0.00009  -0.00016  -0.00010
 190        2S          0.00254   0.00039   0.00058   0.00050  -0.00080
 191        3PX        -0.00021   0.00003  -0.00002  -0.00004   0.00002
 192        3PY         0.00009  -0.00006   0.00002  -0.00014   0.00006
 193        3PZ         0.00010   0.00004  -0.00006   0.00001   0.00002
 194 16  H  1S         -0.00003   0.00056  -0.00002   0.00076  -0.00065
 195        2S         -0.00054   0.00135   0.00021   0.00126  -0.00181
 196        3PX        -0.00006   0.00014   0.00003   0.00022  -0.00009
 197        3PY         0.00004  -0.00018   0.00001  -0.00021   0.00007
 198        3PZ        -0.00005   0.00007  -0.00002   0.00003  -0.00008
                          16        17        18        19        20
                           O         O         O         O         O
     Eigenvalues --    -4.72933  -4.69691  -4.69619  -4.69584  -0.97620
   1 1   C  1S         -0.00002   0.00002  -0.00003  -0.00006  -0.00801
   2        2S         -0.00030   0.00029  -0.00010  -0.00042   0.01155
   3        2PX        -0.00004   0.00003   0.00003   0.00007  -0.00074
   4        2PY        -0.00021   0.00013   0.00008  -0.00017  -0.00530
   5        2PZ         0.00014  -0.00010  -0.00004   0.00013   0.00637
   6        3S          0.00226  -0.00182  -0.00027   0.00391   0.01563
   7        3PX        -0.00142  -0.00198   0.00042   0.00039  -0.00978
   8        3PY        -0.00174   0.00170   0.00061  -0.00153  -0.01170
   9        3PZ         0.00123  -0.00051   0.00064   0.00208   0.00622
  10        4XX         0.00006  -0.00005  -0.00002   0.00000  -0.00065
  11        4YY         0.00024  -0.00022  -0.00020  -0.00001   0.00014
  12        4ZZ         0.00011   0.00000   0.00003   0.00012   0.00020
  13        4XY         0.00020   0.00021  -0.00003  -0.00015   0.00029
  14        4XZ        -0.00018  -0.00016   0.00009   0.00011  -0.00020
  15        4YZ        -0.00013   0.00005  -0.00005  -0.00017  -0.00164
  16 2   H  1S         -0.00014   0.00021   0.00009  -0.00009   0.00201
  17        2S          0.00072  -0.00051   0.00012   0.00052   0.00315
  18        3PX         0.00002   0.00004  -0.00007  -0.00002   0.00019
  19        3PY        -0.00003   0.00000   0.00006   0.00005   0.00024
  20        3PZ         0.00005  -0.00005  -0.00004  -0.00001   0.00037
  21 3   H  1S          0.00004   0.00026  -0.00007  -0.00026   0.00316
  22        2S          0.00051  -0.00032  -0.00022   0.00084   0.00887
  23        3PX         0.00004   0.00002   0.00000  -0.00001  -0.00053
  24        3PY         0.00008   0.00007  -0.00004  -0.00015  -0.00046
  25        3PZ        -0.00008  -0.00007   0.00002   0.00001   0.00005
  26 4   C  1S          0.00009  -0.00015   0.00008   0.00007  -0.02763
  27        2S          0.00182  -0.00182   0.00094   0.00041   0.04660
  28        2PX        -0.00006  -0.00005   0.00004   0.00031  -0.01080
  29        2PY         0.00014  -0.00000  -0.00001   0.00052   0.00378
  30        2PZ        -0.00013   0.00018   0.00025  -0.00006   0.02091
  31        3S         -0.00778   0.00670  -0.00384  -0.00303   0.03735
  32        3PX         0.00468   0.00388  -0.00258  -0.00281  -0.00962
  33        3PY         0.00001  -0.00078   0.00013  -0.00538  -0.01762
  34        3PZ        -0.00011  -0.00135  -0.00448   0.00070  -0.00255
  35        4XX        -0.00024   0.00042  -0.00021  -0.00005   0.00183
  36        4YY         0.00011  -0.00012   0.00011   0.00019  -0.00101
  37        4ZZ         0.00008  -0.00024  -0.00014  -0.00011   0.00237
  38        4XY        -0.00048  -0.00050   0.00030  -0.00008   0.00232
  39        4XZ        -0.00008  -0.00020  -0.00032   0.00002   0.00094
  40        4YZ        -0.00005   0.00005  -0.00011   0.00014   0.00224
  41 5   O  1S         -0.00011   0.00006  -0.00008  -0.00003  -0.05062
  42        2S         -0.00059   0.00031  -0.00048  -0.00017   0.10591
  43        2PX         0.00015   0.00009   0.00008   0.00000   0.01065
  44        2PY         0.00001   0.00001  -0.00004  -0.00012  -0.01976
  45        2PZ         0.00003  -0.00002   0.00004   0.00000  -0.01632
  46        3S          0.00323  -0.00165   0.00347   0.00146   0.11900
  47        3PX        -0.00168  -0.00103   0.00008   0.00023  -0.00194
  48        3PY        -0.00052   0.00039  -0.00066   0.00077  -0.00875
  49        3PZ        -0.00143   0.00069  -0.00177  -0.00084  -0.01246
  50        4XX        -0.00032   0.00011  -0.00022  -0.00004  -0.00272
  51        4YY        -0.00030   0.00012  -0.00007  -0.00024  -0.00300
  52        4ZZ        -0.00018   0.00012  -0.00003   0.00011   0.00024
  53        4XY         0.00013   0.00008   0.00002   0.00004  -0.00020
  54        4XZ         0.00023   0.00020  -0.00009  -0.00015   0.00056
  55        4YZ         0.00013  -0.00004   0.00015  -0.00013   0.00208
  56 6   H  1S          0.00001   0.00026   0.00012   0.00012   0.03142
  57        2S          0.00094  -0.00038   0.00172   0.00010   0.00520
  58        3PX        -0.00008   0.00006   0.00011  -0.00001  -0.00389
  59        3PY         0.00009   0.00003  -0.00015   0.00004   0.00328
  60        3PZ        -0.00004  -0.00003  -0.00001   0.00004  -0.00260
  61 7   P  1S         -0.00000   0.00007   0.00014  -0.00005   0.00280
  62        2S         -0.00011  -0.00038  -0.00056   0.00015  -0.01327
  63        2PX        -0.00012   0.83716  -0.24603   0.47172   0.00160
  64        2PY        -0.00010  -0.44679   0.15256   0.87211  -0.00100
  65        2PZ        -0.00001   0.28898   0.94847  -0.01797  -0.00254
  66        3S         -0.00048  -0.00093   0.00020  -0.00032   0.02165
  67        3PX        -0.00001   0.02500  -0.00759   0.01467  -0.00282
  68        3PY        -0.00019  -0.01356   0.00483   0.02750   0.00275
  69        3PZ        -0.00008   0.00874   0.02993  -0.00041   0.00585
  70        4S          0.00128   0.00311   0.00036   0.00175   0.00130
  71        4PX        -0.00127  -0.00586   0.00124  -0.00255   0.00009
  72        4PY        -0.00118   0.00246  -0.00037  -0.00327   0.00022
  73        4PZ        -0.00037  -0.00147  -0.00394   0.00060   0.00184
  74        5XX         0.00022  -0.00092  -0.00002   0.00071  -0.00102
  75        5YY        -0.00016   0.00001  -0.00134  -0.00023  -0.00084
  76        5ZZ        -0.00009   0.00137   0.00132  -0.00025   0.00060
  77        5XY         0.00010   0.00087  -0.00111   0.00059  -0.00129
  78        5XZ        -0.00002   0.00041   0.00043  -0.00075  -0.00068
  79        5YZ        -0.00001  -0.00029  -0.00062  -0.00147   0.00055
  80 8   P  1S         -0.00043   0.00001   0.00000   0.00000   0.02721
  81        2S          0.00177   0.00014  -0.00001   0.00008  -0.12316
  82        2PX         0.70634   0.00022  -0.00007   0.00027   0.03086
  83        2PY         0.69609  -0.00009   0.00006   0.00011  -0.01392
  84        2PZ         0.01674  -0.00007  -0.00021   0.00008  -0.00391
  85        3S          0.00065   0.00067  -0.00004   0.00055   0.23514
  86        3PX         0.02160  -0.00009   0.00006  -0.00056  -0.05261
  87        3PY         0.02155   0.00010  -0.00001  -0.00033   0.03349
  88        3PZ         0.00048   0.00008   0.00022  -0.00010   0.00738
  89        4S         -0.00395  -0.00247  -0.00088  -0.00426  -0.05448
  90        4PX        -0.00480  -0.00190  -0.00003  -0.00182   0.00043
  91        4PY        -0.00419   0.00071  -0.00074  -0.00018  -0.02628
  92        4PZ         0.00005   0.00087   0.00191   0.00016  -0.00278
  93        5XX         0.00078  -0.00035   0.00013  -0.00047  -0.00650
  94        5YY         0.00031   0.00025  -0.00005   0.00004  -0.00219
  95        5ZZ        -0.00102   0.00008  -0.00003  -0.00007  -0.00567
  96        5XY         0.00089   0.00001  -0.00005  -0.00012  -0.01854
  97        5XZ         0.00012   0.00004   0.00018  -0.00008  -0.00191
  98        5YZ         0.00075   0.00006   0.00009  -0.00003   0.00186
  99 9   O  1S          0.00001  -0.00018  -0.00032   0.00010  -0.00841
 100        2S          0.00006   0.00091   0.00128   0.00019   0.01893
 101        2PX        -0.00002  -0.00010  -0.00030   0.00007  -0.00345
 102        2PY        -0.00003   0.00006   0.00031   0.00016   0.00278
 103        2PZ         0.00001  -0.00067  -0.00082   0.00006  -0.00474
 104        3S         -0.00031  -0.00409  -0.00588  -0.00094   0.01409
 105        3PX         0.00028   0.00026   0.00138  -0.00042  -0.00104
 106        3PY         0.00014  -0.00014  -0.00136  -0.00110   0.00079
 107        3PZ        -0.00007   0.00295   0.00335  -0.00013  -0.00073
 108        4XX         0.00002   0.00043   0.00036   0.00024   0.00046
 109        4YY        -0.00001   0.00037   0.00033   0.00006   0.00036
 110        4ZZ         0.00005   0.00037   0.00098   0.00017   0.00108
 111        4XY         0.00003  -0.00010   0.00008   0.00004  -0.00036
 112        4XZ        -0.00001   0.00036  -0.00003   0.00023   0.00024
 113        4YZ        -0.00006  -0.00021   0.00002   0.00048  -0.00019
 114 10  O  1S          0.00026  -0.00002   0.00001  -0.00000  -0.04954
 115        2S         -0.00106  -0.00008   0.00007  -0.00004   0.10360
 116        2PX         0.00006  -0.00000  -0.00010   0.00007  -0.00242
 117        2PY        -0.00062   0.00005  -0.00003   0.00003   0.03204
 118        2PZ         0.00067   0.00006   0.00004   0.00002  -0.02661
 119        3S          0.00459   0.00053  -0.00062   0.00052   0.11044
 120        3PX        -0.00036   0.00018   0.00032  -0.00010   0.00041
 121        3PY         0.00192  -0.00017   0.00000  -0.00004   0.01822
 122        3PZ        -0.00224  -0.00030  -0.00018  -0.00012  -0.01109
 123        4XX        -0.00029  -0.00006   0.00003  -0.00003  -0.00309
 124        4YY        -0.00073  -0.00005  -0.00001   0.00002   0.00347
 125        4ZZ        -0.00041   0.00000   0.00002   0.00005   0.00191
 126        4XY        -0.00020   0.00002   0.00003  -0.00003  -0.00010
[...]
 153        4XX        -0.51457   0.14030   0.13955
 154        4YY        -0.52739   0.15795   0.15931
 155        4ZZ        -0.56262   0.20322   0.14740
 156        4XY         0.07677  -0.01027  -0.02513
 157        4XZ        -0.05231   0.03311   0.01297
 158        4YZ        -0.03441   0.01740   0.02478
 159 13  O  1S         -0.09481  -0.06952  -0.02875
 160        2S         -0.10727  -0.11445  -0.02121
 161        2PX         0.02330   0.01968   0.00178
 162        2PY        -0.03192  -0.02405  -0.02607
 163        2PZ         0.00178  -0.01997  -0.00356
 164        3S          1.10064   0.91614   0.28034
 165        3PX        -0.02960  -0.08061   0.00994
 166        3PY         0.26270   0.16152   0.05644
 167        3PZ         0.04106   0.15041   0.00937
 168        4XX        -0.32394  -0.25383  -0.09720
 169        4YY        -0.24611  -0.20806  -0.08893
 170        4ZZ        -0.33553  -0.20599  -0.11194
 171        4XY         0.01581  -0.00872  -0.00578
 172        4XZ        -0.00186  -0.00129   0.00689
 173        4YZ         0.04060   0.03571   0.01221
 174 14  O  1S         -0.07880  -0.08946  -0.03868
 175        2S         -0.15689  -0.14572  -0.06339
 176        2PX        -0.00826  -0.00740  -0.00512
 177        2PY        -0.01312  -0.02719  -0.01248
 178        2PZ        -0.02480  -0.01805  -0.01270
 179        3S          1.20311   1.22637   0.51002
 180        3PX         0.05982   0.07082   0.00884
 181        3PY         0.12758   0.16921   0.07395
 182        3PZ         0.29278   0.13843   0.06290
 183        4XX        -0.25823  -0.29651  -0.11929
 184        4YY        -0.25651  -0.28370  -0.13069
 185        4ZZ        -0.21037  -0.28483  -0.12795
 186        4XY        -0.00559  -0.00971   0.01339
 187        4XZ         0.00768   0.01195  -0.00605
 188        4YZ         0.01291   0.03774   0.01246
 189 15  H  1S          0.01388   0.15795   0.14027
 190        2S         -0.05288  -0.09128  -0.32324
 191        3PX         0.01514   0.17737   0.20913
 192        3PY        -0.02226  -0.08276  -0.13828
 193        3PZ         0.05492  -0.08631  -0.07235
 194 16  H  1S          0.32971  -0.00162   0.06934
 195        2S          0.11836   0.22398   0.07441
 196        3PX         0.13590   0.05616   0.02787
 197        3PY        -0.09883  -0.02113  -0.02266
 198        3PZ         0.33326  -0.02565   0.05874
          Condensed to atoms (all electrons):
 Mulliken charges:
               1
     1  C   -0.303776
     2  H    0.077684
     3  H    0.076770
     4  C   -0.111830
     5  O   -0.649620
     6  H    0.296499
     7  P    0.804265
     8  P    0.937481
     9  O   -0.801884
    10  O   -0.729768
    11  O   -0.667593
    12  O   -0.769174
    13  O   -0.769814
    14  O   -0.752757
    15  H    0.058781
    16  H    0.304737
 Sum of Mulliken charges =  -3.00000
 Mulliken charges with hydrogens summed into heavy atoms:
               1
     1  C   -0.090542
     4  C   -0.111830
     5  O   -0.353121
     7  P    0.804265
     8  P    0.937481
     9  O   -0.801884
    10  O   -0.729768
    11  O   -0.362856
    12  O   -0.769174
    13  O   -0.769814
    14  O   -0.752757
 Electronic spatial extent (au):  <R**2>=           2017.6118
 Charge=             -3.0000 electrons
 Dipole moment (field-independent basis, Debye):
    X=             -7.2192    Y=              8.0197    Z=             -0.6660  Tot=             10.8110
 There are a total of      357778 grid points.
 ElSum from          density=      106.0000069984
 ElSum from atomic densities=      103.0000114691
 Hirshfeld populations at iteration   1 (CA, CB, DipXYZ):
               1          2          3          4          5
     1  C    3.058859   3.058859  -0.010281  -0.006768  -0.002479
     2  H    0.494341   0.494341  -0.005445  -0.021669  -0.122650
     3  H    0.497820   0.497820   0.079625   0.086936   0.007121
     4  C    3.014021   3.014021   0.002228   0.067907   0.045005
     5  O    4.162811   4.162811   0.092124  -0.126932  -0.112761
     6  H    0.461505   0.461505   0.040673  -0.023505   0.076222
     7  P    7.399144   7.399144  -0.160062   0.097294   0.027017
     8  P    7.350908   7.350908   0.021345   0.175593   0.004802
     9  O    4.284338   4.284338  -0.116270   0.094636  -0.120521
    10  O    4.284631   4.284631   0.018922   0.112207  -0.087101
    11  O    4.169817   4.169817   0.039260  -0.007251  -0.162464
    12  O    4.305136   4.305136  -0.147077  -0.070859   0.063719
    13  O    4.309430   4.309430  -0.004974   0.147159   0.091084
    14  O    4.282016   4.282016   0.035631   0.063975   0.129843
    15  H    0.497395   0.497395  -0.093304   0.076747   0.016671
    16  H    0.427832   0.427832  -0.102734   0.095932  -0.162784
       Tot  53.000003  53.000003  -0.310338   0.761403  -0.309277

 Dip from Atomic Chgs             -2.529996   2.393832   0.047219
         Total Dipole             -2.840335   3.155234  -0.262058

 Hirshfeld charges, spin densities, dipoles, and CM5 charges using IRadAn=      5:
              Q-H        S-H        Dx         Dy         Dz        Q-CM5   
     1  C   -0.117718   0.000000  -0.010281  -0.006768  -0.002479  -0.251426
     2  H    0.011318   0.000000  -0.005445  -0.021669  -0.122650   0.068203
     3  H    0.004360   0.000000   0.079625   0.086936   0.007121   0.063704
     4  C   -0.028042   0.000000   0.002228   0.067907   0.045005   0.034031
     5  O   -0.325621   0.000000   0.092124  -0.126932  -0.112761  -0.506870
     6  H    0.076989   0.000000   0.040673  -0.023505   0.076222   0.274885
     7  P    0.201712   0.000000  -0.160062   0.097294   0.027017   0.184277
     8  P    0.298183   0.000000   0.021345   0.175593   0.004802   0.269356
     9  O   -0.568676   0.000000  -0.116270   0.094636  -0.120521  -0.602912
    10  O   -0.569262   0.000000   0.018922   0.112207  -0.087101  -0.579036
    11  O   -0.339633   0.000000   0.039260  -0.007251  -0.162464  -0.512730
    12  O   -0.610272   0.000000  -0.147077  -0.070859   0.063719  -0.623995
    13  O   -0.618860   0.000000  -0.004974   0.147159   0.091084  -0.627589
    14  O   -0.564032   0.000000   0.035631   0.063975   0.129843  -0.579427
    15  H    0.005211   0.000000  -0.093304   0.076747   0.016671   0.062548
    16  H    0.144337   0.000000  -0.102734   0.095932  -0.162784   0.326973
       Tot  -3.000007   0.000000  -0.310338   0.761403  -0.309277  -3.000007
 Hirshfeld charges with hydrogens summed into heavy atoms:
              Q-H       Q-CM5   
     1  C   -0.096829  -0.056970
     4  C   -0.028042   0.034031
     5  O   -0.248632  -0.231985
     7  P    0.201712   0.184277
     8  P    0.298183   0.269356
     9  O   -0.568676  -0.602912
    10  O   -0.569262  -0.579036
    11  O   -0.195296  -0.185756
    12  O   -0.610272  -0.623995
    13  O   -0.618860  -0.627589
    14  O   -0.564032  -0.579427
 
 EQQ= 0.000000000000E+00 EQD= 0.000000000000E+00 EDD= 0.593858187507E-02
 EQQ+QD+DD= 0.593858187507E-02
 
 Orbital energies and kinetic energies (alpha):
                                 1                 2
   1         O               -77.119378        106.045679
   2         O               -77.086038        106.045927
   3         O               -19.106477         29.027632
   4         O               -19.080936         29.028110
   5         O               -19.034998         29.028345
   6         O               -19.034743         29.028697
   7         O               -19.013483         29.029144
   8         O               -19.006708         29.029762
   9         O               -19.004780         29.029847
  10         O               -10.169394         15.891366
  11         O               -10.139215         15.883274
  12         O                -6.567978         15.695057
  13         O                -6.533155         15.696362
  14         O                -4.733285         14.711262
  15         O                -4.730128         14.704350
  16         O                -4.729332         14.712246
  17         O                -4.696907         14.715239
  18         O                -4.696193         14.707794
  19         O                -4.695837         14.707885
  20         O                -0.976203          2.508019
  21         O                -0.951901          2.458040
  22         O                -0.896566          2.661579
  23         O                -0.895489          2.726418
  24         O                -0.857252          2.886782
  25         O                -0.825100          2.858502
  26         O                -0.820613          2.873611
  27         O                -0.697070          1.513960
  28         O                -0.565384          1.777748
  29         O                -0.498731          2.046458
  30         O                -0.455385          1.755478
  31         O                -0.430636          1.804764
  32         O                -0.388418          2.250859
  33         O                -0.385804          1.929535
  34         O                -0.366429          1.612835
  35         O                -0.356501          1.708040
  36         O                -0.344441          1.709175
  37         O                -0.330324          1.702621
  38         O                -0.309934          2.379764
  39         O                -0.303695          2.262370
  40         O                -0.300862          2.279110
  41         O                -0.284747          1.987094
  42         O                -0.274488          2.166929
  43         O                -0.251084          2.104510
  44         O                -0.241013          2.156900
  45         O                -0.224565          2.047223
  46         O                -0.220687          2.063387
  47         O                -0.215243          2.196973
  48         O                -0.205219          2.206350
  49         O                -0.202256          2.171786
  50         O                -0.190744          2.251493
  51         O                -0.183517          2.218101
  52         O                -0.171547          2.165284
  53         O                -0.155149          2.400311
  54         V                 0.107973          1.416844
  55         V                 0.147494          1.984145
  56         V                 0.156748          1.424114
  57         V                 0.159826          1.713235
  58         V                 0.188630          1.371224
  59         V                 0.196449          1.477140
  60         V                 0.208560          2.513765
  61         V                 0.219213          1.761120
  62         V                 0.231069          2.003286
  63         V                 0.245848          2.030129
  64         V                 0.262822          2.014097
  65         V                 0.267199          1.754169
  66         V                 0.293550          1.701358
  67         V                 0.302107          2.314747
  68         V                 0.324448          1.932004
  69         V                 0.384861          2.497424
  70         V                 0.401926          3.065193
  71         V                 0.425649          2.517664
  72         V                 0.457841          2.370359
  73         V                 0.474492          2.646986
  74         V                 0.479865          2.714498
  75         V                 0.502976          2.277680
  76         V                 0.520231          2.303953
  77         V                 0.602603          2.289853
  78         V                 0.629999          2.044582
  79         V                 0.631781          2.601551
  80         V                 0.694607          2.571435
  81         V                 0.708485          2.499011
  82         V                 0.715133          2.437593
  83         V                 0.764623          2.364165
  84         V                 0.788467          2.474037
  85         V                 0.806029          2.658153
  86         V                 0.848085          2.517485
  87         V                 0.849879          2.544176
  88         V                 0.872944          2.608050
  89         V                 0.874006          2.693405
  90         V                 0.891618          2.473589
  91         V                 0.904702          2.597427
  92         V                 0.915787          2.583072
  93         V                 0.944745          2.690575
  94         V                 0.950369          2.624265
  95         V                 0.974645          2.574566
  96         V                 0.984142          2.904114
  97         V                 0.994387          2.611121
  98         V                 1.019350          3.064404
  99         V                 1.045846          3.119650
 100         V                 1.061897          3.171299
 101         V                 1.064123          3.096981
 102         V                 1.081470          3.226859
 103         V                 1.089761          2.986607
 104         V                 1.095669          3.313189
 105         V                 1.116254          3.222782
 106         V                 1.124532          3.314562
 107         V                 1.132019          3.160502
 108         V                 1.132916          3.356468
 109         V                 1.144757          3.093147
 110         V                 1.170252          3.340679
 111         V                 1.189060          3.243671
 112         V                 1.215277          3.374511
 113         V                 1.235009          3.968963
 114         V                 1.243081          3.795285
 115         V                 1.270199          3.642582
 116         V                 1.277070          3.752283
 117         V                 1.287107          3.813454
 118         V                 1.308585          3.507023
 119         V                 1.381450          3.102687
 120         V                 1.398515          2.939605
 121         V                 1.434855          2.768500
 122         V                 1.480272          2.801971
 123         V                 1.501706          2.767980
 124         V                 1.505793          2.741269
 125         V                 1.574909          2.811169
 126         V                 1.598266          2.707642
 127         V                 1.624957          2.695389
 128         V                 1.673228          2.798887
 129         V                 1.680099          2.779143
 130         V                 1.715714          2.800855
 131         V                 1.742334          2.856159
 132         V                 1.803585          2.868173
 133         V                 1.827920          2.913470
 134         V                 1.854965          2.910765
 135         V                 1.873921          2.906654
 136         V                 1.884189          2.951770
 137         V                 1.893139          2.914432
 138         V                 1.895084          2.861404
 139         V                 1.905748          2.909042
 140         V                 1.912020          2.902469
 141         V                 1.924462          2.929211
 142         V                 1.933587          2.920446
 143         V                 1.938521          2.912433
 144         V                 1.952248          2.990551
 145         V                 1.956435          3.080640
 146         V                 1.974519          3.149725
 147         V                 1.991650          3.242780
 148         V                 2.053310          3.281434
 149         V                 2.062302          3.225944
 150         V                 2.068566          3.410977
 151         V                 2.085045          3.018710
 152         V                 2.096582          3.496237
 153         V                 2.110079          3.280749
 154         V                 2.125489          3.259033
 155         V                 2.158389          3.305652
 156         V                 2.185306          3.366294
 157         V                 2.201027          3.495709
 158         V                 2.210183          3.455322
 159         V                 2.262096          3.412727
 160         V                 2.308090          3.573841
 161         V                 2.356282          3.521968
 162         V                 2.367033          3.575640
 163         V                 2.383004          3.590648
 164         V                 2.434829          3.704808
 165         V                 2.483898          3.756217
 166         V                 2.523112          3.776079
 167         V                 2.544667          3.878397
 168         V                 2.548066          4.239721
 169         V                 2.589023          3.739790
 170         V                 2.682556          3.600104
 171         V                 2.715524          4.029502
 172         V                 2.735941          4.056254
 173         V                 2.750242          3.830600
 174         V                 2.793027          4.101567
 175         V                 2.834515          4.384251
 176         V                 2.859189          4.302715
 177         V                 2.884216          4.794224
 178         V                 2.896150          4.644272
 179         V                 2.907497          4.660005
 180         V                 2.917939          4.071016
 181         V                 3.025063          4.396898
 182         V                 3.060984          4.480685
 183         V                 3.251791          4.942747
 184         V                 3.426949          6.445966
 185         V                 3.476701          5.177143
 186         V                 3.485867          5.381073
 187         V                 3.542995          7.114503
 188         V                 3.591952          9.283385
 189         V                 3.661620          9.901543
 190         V                 3.842388         10.280523
 191         V                 3.850418         10.063724
 192         V                 3.926412          9.736514
 193         V                 3.973084         10.441910
 194         V                 4.077482         10.803318
 195         V                 4.121564         10.530236
 196         V                 4.245360         10.798284
 197         V                 4.443362         10.569419
 198         V                 4.627159         10.327929
 Total kinetic energy from orbitals= 1.281119978842D+03

 Test job not archived.
 1\1\GINC-BATAGIN2\SP\RB3LYP\6-31G(d,p)\C2H5O7P2(3-)\ORISON\09-Feb-2021
 \0\\#t B3LYP/6-31G(d,p) scrf=(solvent=water) # Gfinput IOP(6/7=3) Pop=
 hirshfeld Density Test # Units(Ang,Deg)\\eti-3dp-opt-g09.log\\-3,1\C,0
 ,-0.07675,1.85793,-0.84048\H,0,-0.17799,1.53203,-1.88011\H,0,0.83484,2
 .45444,-0.75806\C,0,0.01146,0.65753,0.10442\O,0,0.05161,1.1605,1.46516
 \H,0,0.76695,0.57192,1.83095\P,0,1.6892,-0.2733,-0.09639\P,0,-1.52266,
 -0.38455,-0.06458\O,0,2.00059,-0.53782,1.41531\O,0,-1.56086,-1.5035,0.
 96005\O,0,-2.72143,0.71262,0.42851\O,0,2.65623,0.73981,-0.74393\O,0,1.
 48873,-1.55721,-0.92266\O,0,-1.84917,-0.67913,-1.52412\H,0,-0.94528,2.
 48389,-0.59895\H,0,-3.11049,1.05044,-0.38959\\Version=EM64L-G16RevA.03
 \State=1-A\HF=-1289.0280438\RMSD=3.568e-09\Dipole=-2.8402644,3.1552112
 ,-0.2620402\Quadrupole=-16.7191289,8.6386527,8.0804763,-4.7417078,3.82
 92104,-2.8687784\PG=C01 [X(C2H5O7P2)]\\@


 ... FOR AFTERWARDS A MAN FINDS PLEASURE IN HIS PAINS,
 WHEN HE HAS SUFFERED LONG AND WANDERED FAR.

                                    -- HOMER
 Job cpu time:       0 days  0 hours  4 minutes 26.8 seconds.
 Elapsed time:       0 days  0 hours  0 minutes 33.5 seconds.
 File lengths (MBytes):  RWF=     68 Int=      0 D2E=      0 Chk=      4 Scr=      1
 Normal termination of Gaussian 16 at Tue Feb  9 22:26:18 2021.
