 Entering Gaussian System, Link 0=g16
 Input=eti-3dp-opt-g09.com
 Output=eti-3dp-opt-g09.log
 Initial command:
 /usr/local//g16/l1.exe "/home/orison/scrgauss/Gau-17612.inp" -scrdir="/home/orison/scrgauss/"
 Entering Link 1 = /usr/local//g16/l1.exe PID=     17614.
  
 Copyright (c) 1988,1990,1992,1993,1995,1998,2003,2009,2016,
            Gaussian, Inc.  All Rights Reserved.
  
 This is part of the Gaussian(R) 16 program.  It is based on
 the Gaussian(R) 09 system (copyright 2009, Gaussian, Inc.),
 the Gaussian(R) 03 system (copyright 2003, Gaussian, Inc.),
 the Gaussian(R) 98 system (copyright 1998, Gaussian, Inc.),
 the Gaussian(R) 94 system (copyright 1995, Gaussian, Inc.),
 the Gaussian 92(TM) system (copyright 1992, Gaussian, Inc.),
 the Gaussian 90(TM) system (copyright 1990, Gaussian, Inc.),
 the Gaussian 88(TM) system (copyright 1988, Gaussian, Inc.),
 the Gaussian 86(TM) system (copyright 1986, Carnegie Mellon
 University), and the Gaussian 82(TM) system (copyright 1983,
 Carnegie Mellon University). Gaussian is a federally registered
 trademark of Gaussian, Inc.
  
 This software contains proprietary and confidential information,
 including trade secrets, belonging to Gaussian, Inc.
  
 This software is provided under written license and may be
 used, copied, transmitted, or stored only in accord with that
 written license.
  
 The following legend is applicable only to US Government
 contracts under FAR:
  
                    RESTRICTED RIGHTS LEGEND
  
 Use, reproduction and disclosure by the US Government is
 subject to restrictions as set forth in subparagraphs (a)
 and (c) of the Commercial Computer Software - Restricted
 Rights clause in FAR 52.227-19.
  
 Gaussian, Inc.
 340 Quinnipiac St., Bldg. 40, Wallingford CT 06492
  
  
 ---------------------------------------------------------------
 Warning -- This program may not be used in any manner that
 competes with the business of Gaussian, Inc. or will provide
 assistance to any competitor of Gaussian, Inc.  The licensee
 of this program is prohibited from giving any competitor of
 Gaussian, Inc. access to this program.  By using this program,
 the user acknowledges that Gaussian, Inc. is engaged in the
 business of creating and licensing software in the field of
 computational chemistry and represents and warrants to the
 licensee that it is not a competitor of Gaussian, Inc. and that
 it will not use this program in any manner prohibited above.
 ---------------------------------------------------------------
  

 Cite this work as:
 Gaussian 16, Revision A.03,
 M. J. Frisch, G. W. Trucks, H. B. Schlegel, G. E. Scuseria, 
 M. A. Robb, J. R. Cheeseman, G. Scalmani, V. Barone, 
 G. A. Petersson, H. Nakatsuji, X. Li, M. Caricato, A. V. Marenich, 
 J. Bloino, B. G. Janesko, R. Gomperts, B. Mennucci, H. P. Hratchian, 
 J. V. Ortiz, A. F. Izmaylov, J. L. Sonnenberg, D. Williams-Young, 
 F. Ding, F. Lipparini, F. Egidi, J. Goings, B. Peng, A. Petrone, 
 T. Henderson, D. Ranasinghe, V. G. Zakrzewski, J. Gao, N. Rega, 
 G. Zheng, W. Liang, M. Hada, M. Ehara, K. Toyota, R. Fukuda, 
 J. Hasegawa, M. Ishida, T. Nakajima, Y. Honda, O. Kitao, H. Nakai, 
 T. Vreven, K. Throssell, J. A. Montgomery, Jr., J. E. Peralta, 
 F. Ogliaro, M. J. Bearpark, J. J. Heyd, E. N. Brothers, K. N. Kudin, 
 V. N. Staroverov, T. A. Keith, R. Kobayashi, J. Normand, 
 K. Raghavachari, A. P. Rendell, J. C. Burant, S. S. Iyengar, 
 J. Tomasi, M. Cossi, J. M. Millam, M. Klene, C. Adamo, R. Cammi, 
 J. W. Ochterski, R. L. Martin, K. Morokuma, O. Farkas, 
 J. B. Foresman, and D. J. Fox, Gaussian, Inc., Wallingford CT, 2016.
 
 ******************************************
 Gaussian 16:  EM64L-G16RevA.03 25-Dec-2016
                 9-Feb-2021 
 ******************************************
 %nproc=8
 Will use up to    8 processors via shared memory.
 %Mem=4GB
 ----------------------------------------------------------------------
 #P B3LYP/6-31G(d,p) # Opt SCRF=(Solvent=Water) # Gfinput IOP(6/7=3) Po
 p=full Density Test # Units(Ang,Deg)
 ----------------------------------------------------------------------
 1/18=20,19=15,26=3,38=1/1,3;
 2/9=110,12=2,17=6,18=5,40=1/2;
 3/5=1,6=6,7=101,11=2,24=10,25=1,30=1,70=2201,71=1,72=1,74=-5/1,2,3;
 4//1;
 5/5=2,38=5,53=1/2;
 6/7=3,22=-1,28=1/1;
 7//1,2,3,16;
 1/18=20,19=15,26=3/3(2);
 2/9=110/2;
 99//99;
 2/9=110/2;
 3/5=1,6=6,7=101,11=2,25=1,30=1,70=2205,71=1,72=1,74=-5/1,2,3;
 4/5=5,16=3,69=1/1;
 5/5=2,38=5,53=1/2;
 7//1,2,3,16;
 1/18=20,19=15,26=3/3(-5);
 2/9=110/2;
 6/7=3,19=2,22=-1,28=1/1;
 99/9=1/99;
 Leave Link    1 at Tue Feb  9 16:12:06 2021, MaxMem=   536870912 cpu:               0.5 elap:               0.1
 (Enter /usr/local//g16/l101.exe)
 -------------------
 eti-2dp-opt-g09.log
 -------------------
 Symbolic Z-matrix:
 Charge = -3 Multiplicity = 1
 C                    -0.03678   1.86311  -0.81911 
 H                    -0.05643   1.53009  -1.85991 
 H                     0.8391    2.49812  -0.66358 
 C                    -0.00782   0.66901   0.13618 
 O                     0.01905   1.18454   1.48591 
 H                     0.56995   0.52705   1.95789 
 P                     1.55686  -0.36208  -0.02755 
 P                    -1.54994  -0.37443  -0.08434 
 O                     1.90524  -0.75366   1.40151 
 O                    -1.52327  -1.53194   0.89046 
 O                    -2.72267   0.69693   0.46658 
 O                     2.71715   0.76191  -0.46197 
 O                     1.47189  -1.38812  -1.13493 
 O                    -1.8452   -0.59649  -1.55655 
 H                    -0.93711   2.45999  -0.63867 
 H                    -3.1742    1.03141  -0.3207 
 
 ITRead=  0  0  0  0  0  0  0  0  0  0  0  0  0  0  0  0
 MicOpt= -1 -1 -1 -1 -1 -1 -1 -1 -1 -1 -1 -1 -1 -1 -1 -1
 NAtoms=     16 NQM=       16 NQMF=       0 NMMI=      0 NMMIF=      0
                NMic=       0 NMicF=      0.
                    Isotopes and Nuclear Properties:
 (Nuclear quadrupole moments (NQMom) in fm**2, nuclear magnetic moments (NMagM)
  in nuclear magnetons)

  Atom         1           2           3           4           5           6           7           8           9          10
 IAtWgt=          12           1           1          12          16           1          31          31          16          16
 AtmWgt=  12.0000000   1.0078250   1.0078250  12.0000000  15.9949146   1.0078250  30.9737634  30.9737634  15.9949146  15.9949146
 NucSpn=           0           1           1           0           0           1           1           1           0           0
 AtZEff=  -0.0000000  -0.0000000  -0.0000000  -0.0000000  -0.0000000  -0.0000000  -0.0000000  -0.0000000  -0.0000000  -0.0000000
 NQMom=    0.0000000   0.0000000   0.0000000   0.0000000   0.0000000   0.0000000   0.0000000   0.0000000   0.0000000   0.0000000
 NMagM=    0.0000000   2.7928460   2.7928460   0.0000000   0.0000000   2.7928460   1.1316000   1.1316000   0.0000000   0.0000000
 AtZNuc=   6.0000000   1.0000000   1.0000000   6.0000000   8.0000000   1.0000000  15.0000000  15.0000000   8.0000000   8.0000000

  Atom        11          12          13          14          15          16
 IAtWgt=          16          16          16          16           1           1
 AtmWgt=  15.9949146  15.9949146  15.9949146  15.9949146   1.0078250   1.0078250
 NucSpn=           0           0           0           0           1           1
 AtZEff=  -0.0000000  -0.0000000  -0.0000000  -0.0000000  -0.0000000  -0.0000000
 NQMom=    0.0000000   0.0000000   0.0000000   0.0000000   0.0000000   0.0000000
 NMagM=    0.0000000   0.0000000   0.0000000   0.0000000   2.7928460   2.7928460
 AtZNuc=   8.0000000   8.0000000   8.0000000   8.0000000   1.0000000   1.0000000
 Leave Link  101 at Tue Feb  9 16:12:06 2021, MaxMem=   536870912 cpu:               1.4 elap:               0.2
 (Enter /usr/local//g16/l103.exe)

 GradGradGradGradGradGradGradGradGradGradGradGradGradGradGradGradGradGrad
 Berny optimization.
 Initialization pass.
                           ----------------------------
                           !    Initial Parameters    !
                           ! (Angstroms and Degrees)  !
 --------------------------                            --------------------------
 ! Name  Definition              Value          Derivative Info.                !
 --------------------------------------------------------------------------------
 ! R1    R(1,2)                  1.093          estimate D2E/DX2                !
 ! R2    R(1,3)                  1.093          estimate D2E/DX2                !
 ! R3    R(1,4)                  1.5295         estimate D2E/DX2                !
 ! R4    R(1,15)                 1.0952         estimate D2E/DX2                !
 ! R5    R(4,5)                  1.4451         estimate D2E/DX2                !
 ! R6    R(4,7)                  1.881          estimate D2E/DX2                !
 ! R7    R(4,8)                  1.875          estimate D2E/DX2                !
 ! R8    R(5,6)                  0.9791         estimate D2E/DX2                !
 ! R9    R(7,9)                  1.5221         estimate D2E/DX2                !
 ! R10   R(7,12)                 1.6728         estimate D2E/DX2                !
 ! R11   R(7,13)                 1.512          estimate D2E/DX2                !
 ! R12   R(8,10)                 1.5135         estimate D2E/DX2                !
 ! R13   R(8,11)                 1.6813         estimate D2E/DX2                !
 ! R14   R(8,14)                 1.5179         estimate D2E/DX2                !
 ! R15   R(11,16)                0.9672         estimate D2E/DX2                !
 ! A1    A(2,1,3)              109.0833         estimate D2E/DX2                !
 ! A2    A(2,1,4)              110.9306         estimate D2E/DX2                !
 ! A3    A(2,1,15)             107.9495         estimate D2E/DX2                !
 ! A4    A(3,1,4)              110.4594         estimate D2E/DX2                !
 ! A5    A(3,1,15)             108.5847         estimate D2E/DX2                !
 ! A6    A(4,1,15)             109.7649         estimate D2E/DX2                !
 ! A7    A(1,4,5)              107.7704         estimate D2E/DX2                !
 ! A8    A(1,4,7)              112.9138         estimate D2E/DX2                !
 ! A9    A(1,4,8)              110.2092         estimate D2E/DX2                !
 ! A10   A(5,4,7)              105.1524         estimate D2E/DX2                !
 ! A11   A(5,4,8)              108.8855         estimate D2E/DX2                !
 ! A12   A(7,4,8)              111.6459         estimate D2E/DX2                !
 ! A13   A(4,5,6)              102.7769         estimate D2E/DX2                !
 ! A14   A(4,7,9)              104.4587         estimate D2E/DX2                !
 ! A15   A(4,7,12)             103.3712         estimate D2E/DX2                !
 ! A16   A(4,7,13)             112.8906         estimate D2E/DX2                !
 ! A17   A(9,7,12)             104.9463         estimate D2E/DX2                !
 ! A18   A(9,7,13)             121.7276         estimate D2E/DX2                !
 ! A19   A(12,7,13)            107.7419         estimate D2E/DX2                !
 ! A20   A(4,8,10)             109.5945         estimate D2E/DX2                !
 ! A21   A(4,8,11)             100.4009         estimate D2E/DX2                !
 ! A22   A(4,8,14)             110.823          estimate D2E/DX2                !
 ! A23   A(10,8,11)            106.7734         estimate D2E/DX2                !
 ! A24   A(10,8,14)            121.0797         estimate D2E/DX2                !
 ! A25   A(11,8,14)            105.984          estimate D2E/DX2                !
 ! A26   A(8,11,16)            106.2165         estimate D2E/DX2                !
 ! D1    D(2,1,4,5)            179.9168         estimate D2E/DX2                !
 ! D2    D(2,1,4,7)             64.2287         estimate D2E/DX2                !
 ! D3    D(2,1,4,8)            -61.3866         estimate D2E/DX2                !
 ! D4    D(3,1,4,5)             58.8324         estimate D2E/DX2                !
 ! D5    D(3,1,4,7)            -56.8558         estimate D2E/DX2                !
 ! D6    D(3,1,4,8)            177.5289         estimate D2E/DX2                !
 ! D7    D(15,1,4,5)           -60.8713         estimate D2E/DX2                !
 ! D8    D(15,1,4,7)          -176.5595         estimate D2E/DX2                !
 ! D9    D(15,1,4,8)            57.8252         estimate D2E/DX2                !
 ! D10   D(1,4,5,6)           -145.8484         estimate D2E/DX2                !
 ! D11   D(7,4,5,6)            -25.1599         estimate D2E/DX2                !
 ! D12   D(8,4,5,6)             94.6113         estimate D2E/DX2                !
 ! D13   D(1,4,7,9)            141.1235         estimate D2E/DX2                !
 ! D14   D(1,4,7,12)            31.5472         estimate D2E/DX2                !
 ! D15   D(1,4,7,13)           -84.5796         estimate D2E/DX2                !
 ! D16   D(5,4,7,9)             23.8813         estimate D2E/DX2                !
 ! D17   D(5,4,7,12)           -85.695          estimate D2E/DX2                !
 ! D18   D(5,4,7,13)           158.1781         estimate D2E/DX2                !
 ! D19   D(8,4,7,9)            -94.0393         estimate D2E/DX2                !
 ! D20   D(8,4,7,12)           156.3844         estimate D2E/DX2                !
 ! D21   D(8,4,7,13)            40.2576         estimate D2E/DX2                !
 ! D22   D(1,4,8,10)          -178.6102         estimate D2E/DX2                !
 ! D23   D(1,4,8,11)           -66.4755         estimate D2E/DX2                !
 ! D24   D(1,4,8,14)            45.1996         estimate D2E/DX2                !
 ! D25   D(5,4,8,10)           -60.5981         estimate D2E/DX2                !
 ! D26   D(5,4,8,11)            51.5366         estimate D2E/DX2                !
 ! D27   D(5,4,8,14)           163.2117         estimate D2E/DX2                !
 ! D28   D(7,4,8,10)            55.0587         estimate D2E/DX2                !
 ! D29   D(7,4,8,11)           167.1934         estimate D2E/DX2                !
 ! D30   D(7,4,8,14)           -81.1315         estimate D2E/DX2                !
 ! D31   D(4,8,11,16)          104.5218         estimate D2E/DX2                !
 ! D32   D(10,8,11,16)        -141.1829         estimate D2E/DX2                !
 ! D33   D(14,8,11,16)         -10.8528         estimate D2E/DX2                !
 --------------------------------------------------------------------------------
 Trust Radius=3.00D-01 FncErr=1.00D-07 GrdErr=1.00D-06 EigMax=2.50D+02 EigMin=1.00D-04
 Number of steps in this run=     84 maximum allowed number of steps=    100.
 GradGradGradGradGradGradGradGradGradGradGradGradGradGradGradGradGradGrad

 Leave Link  103 at Tue Feb  9 16:12:06 2021, MaxMem=   536870912 cpu:               0.1 elap:               0.0
 (Enter /usr/local//g16/l202.exe)
                          Input orientation:                          
 ---------------------------------------------------------------------
 Center     Atomic      Atomic             Coordinates (Angstroms)
 Number     Number       Type             X           Y           Z
 ---------------------------------------------------------------------
      1          6           0       -0.036779    1.863110   -0.819110
      2          1           0       -0.056429    1.530090   -1.859910
      3          1           0        0.839102    2.498120   -0.663580
      4          6           0       -0.007820    0.669010    0.136180
      5          8           0        0.019051    1.184540    1.485910
      6          1           0        0.569950    0.527050    1.957890
      7         15           0        1.556859   -0.362081   -0.027550
      8         15           0       -1.549941   -0.374428   -0.084340
      9          8           0        1.905239   -0.753661    1.401510
     10          8           0       -1.523272   -1.531938    0.890460
     11          8           0       -2.722670    0.696933    0.466580
     12          8           0        2.717150    0.761908   -0.461970
     13          8           0        1.471889   -1.388121   -1.134930
     14          8           0       -1.845201   -0.596488   -1.556550
     15          1           0       -0.937108    2.459991   -0.638670
     16          1           0       -3.174199    1.031413   -0.320700
 ---------------------------------------------------------------------
                    Distance matrix (angstroms):
                    1          2          3          4          5
     1  C    0.000000
     2  H    1.092956   0.000000
     3  H    1.092975   1.780523   0.000000
     4  C    1.529475   2.174442   2.168533   0.000000
     5  O    2.403475   3.364463   2.649204   1.445083   0.000000
     6  H    3.140845   3.996753   3.290846   1.916402   0.979055
     7  P    2.849162   3.088778   3.016697   1.881004   2.654704
     8  P    2.799308   3.001735   3.780817   1.874974   2.712527
     9  O    3.943359   4.438527   3.996914   2.699046   2.705818
    10  O    4.081500   4.369460   4.923131   2.776636   3.180027
    11  O    3.197965   3.635319   4.148223   2.735024   2.965439
    12  O    2.987360   3.199544   2.565569   2.791393   3.354488
    13  O    3.598100   3.373026   3.965534   2.834969   3.949446
    14  O    3.140674   2.795365   4.192789   2.800498   3.987989
    15  H    1.095179   1.769672   1.776794   2.161384   2.656098
    16  H    3.283830   3.512597   4.286651   3.219632   3.672075
                    6          7          8          9         10
     6  H    0.000000
     7  P    2.388831   0.000000
     8  P    3.078523   3.107344   0.000000
     9  O    1.932039   1.522142   3.780190   0.000000
    10  O    3.124167   3.420309   1.513531   3.552686   0.000000
    11  O    3.618593   4.436220   1.681256   4.939216   2.566339
    12  O    3.243663   1.672826   4.431922   2.535489   5.007192
    13  O    3.747921   1.512041   3.356005   2.650257   3.618546
    14  O    4.409828   3.737218   1.517858   4.779186   2.639425
    15  H    3.570659   3.815420   2.952419   4.750666   4.314780
    16  H    4.411916   4.940716   2.161127   5.652715   3.280737
                   11         12         13         14         15
    11  O    0.000000
    12  O    5.518883   0.000000
    13  O    4.950415   2.574136   0.000000
    14  O    2.556549   4.884505   3.436209   0.000000
    15  H    2.741930   4.033399   4.567002   3.318012   0.000000
    16  H    0.967246   5.899202   5.301250   2.437955   2.673297
                   16
    16  H    0.000000
 Stoichiometry    C2H5O7P2(3-)
 Framework group  C1[X(C2H5O7P2)]
 Deg. of freedom    42
 Full point group                 C1      NOp   1
 Largest Abelian subgroup         C1      NOp   1
 Largest concise Abelian subgroup C1      NOp   1
                         Standard orientation:                         
 ---------------------------------------------------------------------
 Center     Atomic      Atomic             Coordinates (Angstroms)
 Number     Number       Type             X           Y           Z
 ---------------------------------------------------------------------
      1          6           0       -0.048012    1.815135   -0.947591
      2          1           0       -0.083268    1.417492   -1.965034
      3          1           0        0.823033    2.467948   -0.849048
      4          6           0        0.013083    0.683486    0.079508
      5          8           0        0.059198    1.282666    1.393707
      6          1           0        0.626644    0.661900    1.894907
      7         15           0        1.586546   -0.339053   -0.050137
      8         15           0       -1.520407   -0.388114   -0.045441
      9          8           0        1.966357   -0.636760    1.393480
     10          8           0       -1.461668   -1.482050    0.998890
     11          8           0       -2.695216    0.703012    0.460414
     12          8           0        2.725031    0.767902   -0.576304
     13          8           0        1.492967   -1.433181   -1.089558
     14          8           0       -1.840632   -0.704941   -1.494912
     15          1           0       -0.951817    2.412479   -0.787171
     16          1           0       -3.165407    0.982765   -0.337223
 ---------------------------------------------------------------------
 Rotational constants (GHZ):           1.4197854           0.6801880           0.6495004
 Leave Link  202 at Tue Feb  9 16:12:06 2021, MaxMem=   536870912 cpu:               0.1 elap:               0.0
 (Enter /usr/local//g16/l301.exe)
 Standard basis: 6-31G(d,p) (6D, 7F)
 Ernie: Thresh=  0.10000D-02 Tol=  0.10000D-05 Strict=F.
 AO basis set in the form of general basis input (Overlap normalization):
      1 0
 S   6 1.00       0.000000000000
      0.3047524880D+04  0.1834737132D-02
      0.4573695180D+03  0.1403732281D-01
      0.1039486850D+03  0.6884262226D-01
      0.2921015530D+02  0.2321844432D+00
      0.9286662960D+01  0.4679413484D+00
      0.3163926960D+01  0.3623119853D+00
 SP   3 1.00       0.000000000000
      0.7868272350D+01 -0.1193324198D+00  0.6899906659D-01
      0.1881288540D+01 -0.1608541517D+00  0.3164239610D+00
      0.5442492580D+00  0.1143456438D+01  0.7443082909D+00
 SP   1 1.00       0.000000000000
      0.1687144782D+00  0.1000000000D+01  0.1000000000D+01
 D   1 1.00       0.000000000000
      0.8000000000D+00  0.1000000000D+01
 ****
      2 0
 S   3 1.00       0.000000000000
      0.1873113696D+02  0.3349460434D-01
      0.2825394365D+01  0.2347269535D+00
      0.6401216923D+00  0.8137573261D+00
 S   1 1.00       0.000000000000
      0.1612777588D+00  0.1000000000D+01
 P   1 1.00       0.000000000000
      0.1100000000D+01  0.1000000000D+01
 ****
      3 0
 S   3 1.00       0.000000000000
      0.1873113696D+02  0.3349460434D-01
      0.2825394365D+01  0.2347269535D+00
      0.6401216923D+00  0.8137573261D+00
 S   1 1.00       0.000000000000
      0.1612777588D+00  0.1000000000D+01
 P   1 1.00       0.000000000000
      0.1100000000D+01  0.1000000000D+01
 ****
      4 0
 S   6 1.00       0.000000000000
      0.3047524880D+04  0.1834737132D-02
      0.4573695180D+03  0.1403732281D-01
      0.1039486850D+03  0.6884262226D-01
      0.2921015530D+02  0.2321844432D+00
      0.9286662960D+01  0.4679413484D+00
      0.3163926960D+01  0.3623119853D+00
 SP   3 1.00       0.000000000000
      0.7868272350D+01 -0.1193324198D+00  0.6899906659D-01
      0.1881288540D+01 -0.1608541517D+00  0.3164239610D+00
      0.5442492580D+00  0.1143456438D+01  0.7443082909D+00
 SP   1 1.00       0.000000000000
      0.1687144782D+00  0.1000000000D+01  0.1000000000D+01
 D   1 1.00       0.000000000000
      0.8000000000D+00  0.1000000000D+01
 ****
      5 0
 S   6 1.00       0.000000000000
      0.5484671660D+04  0.1831074430D-02
      0.8252349460D+03  0.1395017220D-01
      0.1880469580D+03  0.6844507810D-01
      0.5296450000D+02  0.2327143360D+00
      0.1689757040D+02  0.4701928980D+00
      0.5799635340D+01  0.3585208530D+00
 SP   3 1.00       0.000000000000
      0.1553961625D+02 -0.1107775495D+00  0.7087426823D-01
      0.3599933586D+01 -0.1480262627D+00  0.3397528391D+00
      0.1013761750D+01  0.1130767015D+01  0.7271585773D+00
 SP   1 1.00       0.000000000000
      0.2700058226D+00  0.1000000000D+01  0.1000000000D+01
 D   1 1.00       0.000000000000
      0.8000000000D+00  0.1000000000D+01
 ****
      6 0
 S   3 1.00       0.000000000000
      0.1873113696D+02  0.3349460434D-01
      0.2825394365D+01  0.2347269535D+00
      0.6401216923D+00  0.8137573261D+00
 S   1 1.00       0.000000000000
      0.1612777588D+00  0.1000000000D+01
 P   1 1.00       0.000000000000
      0.1100000000D+01  0.1000000000D+01
 ****
      7 0
 S   6 1.00       0.000000000000
      0.1941330000D+05  0.1851598923D-02
      0.2909420000D+04  0.1420619174D-01
      0.6613640000D+03  0.6999945928D-01
      0.1857590000D+03  0.2400788603D+00
      0.5919430000D+02  0.4847617180D+00
      0.2003100000D+02  0.3351998050D+00
 SP   6 1.00       0.000000000000
      0.3394780000D+03 -0.2782170105D-02  0.4564616191D-02
      0.8101010000D+02 -0.3604990135D-01  0.3369357188D-01
      0.2587800000D+02 -0.1166310044D+00  0.1397548834D+00
      0.9452210000D+01  0.9683280364D-01  0.3393617168D+00
      0.3665660000D+01  0.6144180231D+00  0.4509206237D+00
      0.1467460000D+01  0.4037980152D+00  0.2385858009D+00
 SP   3 1.00       0.000000000000
      0.2156230000D+01 -0.2529241139D+00 -0.1776531273D-01
      0.7489970000D+00  0.3285184468D-01  0.2740581964D+00
      0.2831450000D+00  0.1081254762D+01  0.7854215630D+00
 SP   1 1.00       0.000000000000
      0.9983170000D-01  0.1000000000D+01  0.1000000000D+01
 D   1 1.00       0.000000000000
      0.5500000000D+00  0.1000000000D+01
 ****
      8 0
 S   6 1.00       0.000000000000
      0.1941330000D+05  0.1851598923D-02
      0.2909420000D+04  0.1420619174D-01
      0.6613640000D+03  0.6999945928D-01
      0.1857590000D+03  0.2400788603D+00
      0.5919430000D+02  0.4847617180D+00
      0.2003100000D+02  0.3351998050D+00
 SP   6 1.00       0.000000000000
      0.3394780000D+03 -0.2782170105D-02  0.4564616191D-02
      0.8101010000D+02 -0.3604990135D-01  0.3369357188D-01
      0.2587800000D+02 -0.1166310044D+00  0.1397548834D+00
      0.9452210000D+01  0.9683280364D-01  0.3393617168D+00
      0.3665660000D+01  0.6144180231D+00  0.4509206237D+00
      0.1467460000D+01  0.4037980152D+00  0.2385858009D+00
 SP   3 1.00       0.000000000000
      0.2156230000D+01 -0.2529241139D+00 -0.1776531273D-01
      0.7489970000D+00  0.3285184468D-01  0.2740581964D+00
      0.2831450000D+00  0.1081254762D+01  0.7854215630D+00
 SP   1 1.00       0.000000000000
      0.9983170000D-01  0.1000000000D+01  0.1000000000D+01
 D   1 1.00       0.000000000000
      0.5500000000D+00  0.1000000000D+01
 ****
      9 0
 S   6 1.00       0.000000000000
      0.5484671660D+04  0.1831074430D-02
      0.8252349460D+03  0.1395017220D-01
      0.1880469580D+03  0.6844507810D-01
      0.5296450000D+02  0.2327143360D+00
      0.1689757040D+02  0.4701928980D+00
      0.5799635340D+01  0.3585208530D+00
 SP   3 1.00       0.000000000000
      0.1553961625D+02 -0.1107775495D+00  0.7087426823D-01
      0.3599933586D+01 -0.1480262627D+00  0.3397528391D+00
      0.1013761750D+01  0.1130767015D+01  0.7271585773D+00
 SP   1 1.00       0.000000000000
      0.2700058226D+00  0.1000000000D+01  0.1000000000D+01
 D   1 1.00       0.000000000000
      0.8000000000D+00  0.1000000000D+01
 ****
     10 0
 S   6 1.00       0.000000000000
      0.5484671660D+04  0.1831074430D-02
      0.8252349460D+03  0.1395017220D-01
      0.1880469580D+03  0.6844507810D-01
      0.5296450000D+02  0.2327143360D+00
      0.1689757040D+02  0.4701928980D+00
      0.5799635340D+01  0.3585208530D+00
 SP   3 1.00       0.000000000000
      0.1553961625D+02 -0.1107775495D+00  0.7087426823D-01
      0.3599933586D+01 -0.1480262627D+00  0.3397528391D+00
      0.1013761750D+01  0.1130767015D+01  0.7271585773D+00
 SP   1 1.00       0.000000000000
      0.2700058226D+00  0.1000000000D+01  0.1000000000D+01
 D   1 1.00       0.000000000000
      0.8000000000D+00  0.1000000000D+01
 ****
     11 0
 S   6 1.00       0.000000000000
      0.5484671660D+04  0.1831074430D-02
      0.8252349460D+03  0.1395017220D-01
      0.1880469580D+03  0.6844507810D-01
      0.5296450000D+02  0.2327143360D+00
      0.1689757040D+02  0.4701928980D+00
      0.5799635340D+01  0.3585208530D+00
 SP   3 1.00       0.000000000000
      0.1553961625D+02 -0.1107775495D+00  0.7087426823D-01
      0.3599933586D+01 -0.1480262627D+00  0.3397528391D+00
      0.1013761750D+01  0.1130767015D+01  0.7271585773D+00
 SP   1 1.00       0.000000000000
      0.2700058226D+00  0.1000000000D+01  0.1000000000D+01
 D   1 1.00       0.000000000000
      0.8000000000D+00  0.1000000000D+01
 ****
     12 0
 S   6 1.00       0.000000000000
      0.5484671660D+04  0.1831074430D-02
      0.8252349460D+03  0.1395017220D-01
      0.1880469580D+03  0.6844507810D-01
      0.5296450000D+02  0.2327143360D+00
      0.1689757040D+02  0.4701928980D+00
      0.5799635340D+01  0.3585208530D+00
 SP   3 1.00       0.000000000000
      0.1553961625D+02 -0.1107775495D+00  0.7087426823D-01
      0.3599933586D+01 -0.1480262627D+00  0.3397528391D+00
      0.1013761750D+01  0.1130767015D+01  0.7271585773D+00
 SP   1 1.00       0.000000000000
      0.2700058226D+00  0.1000000000D+01  0.1000000000D+01
 D   1 1.00       0.000000000000
      0.8000000000D+00  0.1000000000D+01
 ****
     13 0
 S   6 1.00       0.000000000000
      0.5484671660D+04  0.1831074430D-02
      0.8252349460D+03  0.1395017220D-01
      0.1880469580D+03  0.6844507810D-01
      0.5296450000D+02  0.2327143360D+00
      0.1689757040D+02  0.4701928980D+00
      0.5799635340D+01  0.3585208530D+00
 SP   3 1.00       0.000000000000
      0.1553961625D+02 -0.1107775495D+00  0.7087426823D-01
      0.3599933586D+01 -0.1480262627D+00  0.3397528391D+00
      0.1013761750D+01  0.1130767015D+01  0.7271585773D+00
 SP   1 1.00       0.000000000000
      0.2700058226D+00  0.1000000000D+01  0.1000000000D+01
 D   1 1.00       0.000000000000
      0.8000000000D+00  0.1000000000D+01
 ****
     14 0
 S   6 1.00       0.000000000000
      0.5484671660D+04  0.1831074430D-02
      0.8252349460D+03  0.1395017220D-01
      0.1880469580D+03  0.6844507810D-01
      0.5296450000D+02  0.2327143360D+00
      0.1689757040D+02  0.4701928980D+00
      0.5799635340D+01  0.3585208530D+00
 SP   3 1.00       0.000000000000
      0.1553961625D+02 -0.1107775495D+00  0.7087426823D-01
      0.3599933586D+01 -0.1480262627D+00  0.3397528391D+00
      0.1013761750D+01  0.1130767015D+01  0.7271585773D+00
 SP   1 1.00       0.000000000000
      0.2700058226D+00  0.1000000000D+01  0.1000000000D+01
 D   1 1.00       0.000000000000
      0.8000000000D+00  0.1000000000D+01
 ****
     15 0
 S   3 1.00       0.000000000000
      0.1873113696D+02  0.3349460434D-01
      0.2825394365D+01  0.2347269535D+00
      0.6401216923D+00  0.8137573261D+00
 S   1 1.00       0.000000000000
      0.1612777588D+00  0.1000000000D+01
 P   1 1.00       0.000000000000
      0.1100000000D+01  0.1000000000D+01
 ****
     16 0
 S   3 1.00       0.000000000000
      0.1873113696D+02  0.3349460434D-01
      0.2825394365D+01  0.2347269535D+00
      0.6401216923D+00  0.8137573261D+00
 S   1 1.00       0.000000000000
      0.1612777588D+00  0.1000000000D+01
 P   1 1.00       0.000000000000
      0.1100000000D+01  0.1000000000D+01
 ****

 There are   198 symmetry adapted cartesian basis functions of A   symmetry.
 There are   198 symmetry adapted basis functions of A   symmetry.
   198 basis functions,   391 primitive gaussians,   198 cartesian basis functions
    53 alpha electrons       53 beta electrons
       nuclear repulsion energy       956.5418281767 Hartrees.
 IExCor=  402 DFT=T Ex+Corr=B3LYP ExCW=0 ScaHFX=  0.200000
 ScaDFX=  0.800000  0.720000  1.000000  0.810000 ScalE2=  1.000000  1.000000
 IRadAn=      5 IRanWt=     -1 IRanGd=            0 ICorTp=0 IEmpDi=  4
 NAtoms=   16 NActive=   16 NUniq=   16 SFac= 1.00D+00 NAtFMM=   60 NAOKFM=F Big=F
 Integral buffers will be    131072 words long.
 Raffenetti 2 integral format.
 Two-electron integral symmetry is turned on.
 ------------------------------------------------------------------------------
 Polarizable Continuum Model (PCM)
 =================================
 Model                : PCM.
 Atomic radii         : UFF (Universal Force Field).
 Polarization charges : Total charges.
 Charge compensation  : None.
 Solution method      : On-the-fly selection.
 Cavity type          : Scaled VdW (van der Waals Surface) (Alpha=1.100).
 Cavity algorithm     : GePol (No added spheres)
                        Default sphere list used, NSphG=   16.
                        Lebedev-Laikov grids with approx.  5.0 points / Ang**2.
                        Smoothing algorithm: York/Karplus (Gamma=1.0000).
                        Polarization charges: spherical gaussians, with
                                              point-specific exponents (IZeta= 3).
                        Self-potential: point-specific (ISelfS= 7).
                        Self-field    : sphere-specific E.n sum rule (ISelfD= 2).
 1st derivatives      : Analytical E(r).r(x)/FMM algorithm (CHGder, D1EAlg=3).
                        Cavity 1st derivative terms included.
 Solvent              : Water, Eps=  78.355300 Eps(inf)=   1.777849
 ------------------------------------------------------------------------------
 Spheres list:
 ISph  on   Nord     Re0    Alpha      Xe            Ye            Ze
    1   C      1    1.9255  1.100     -0.048012      1.815135     -0.947591
    2   H      2    1.4430  1.100     -0.083268      1.417492     -1.965034
    3   H      3    1.4430  1.100      0.823033      2.467948     -0.849048
    4   C      4    1.9255  1.100      0.013083      0.683486      0.079508
    5   O      5    1.7500  1.100      0.059198      1.282666      1.393707
    6   H      6    1.4430  1.100      0.626644      0.661900      1.894907
    7   P      7    2.0735  1.100      1.586546     -0.339053     -0.050137
    8   P      8    2.0735  1.100     -1.520407     -0.388114     -0.045441
    9   O      9    1.7500  1.100      1.966357     -0.636760      1.393480
   10   O     10    1.7500  1.100     -1.461668     -1.482050      0.998890
   11   O     11    1.7500  1.100     -2.695216      0.703012      0.460414
   12   O     12    1.7500  1.100      2.725031      0.767902     -0.576304
   13   O     13    1.7500  1.100      1.492967     -1.433181     -1.089558
   14   O     14    1.7500  1.100     -1.840632     -0.704941     -1.494912
   15   H     15    1.4430  1.100     -0.951817      2.412479     -0.787171
   16   H     16    1.4430  1.100     -3.165407      0.982765     -0.337223
 ------------------------------------------------------------------------------
 GePol: Number of generator spheres                  =      16
 GePol: Total number of spheres                      =      16
 GePol: Number of exposed spheres                    =      16 (100.00%)
 GePol: Number of points                             =    1609
 GePol: Average weight of points                     =       0.13
 GePol: Minimum weight of points                     =   0.19D-11
 GePol: Maximum weight of points                     =    0.20577
 GePol: Number of points with low weight             =      74
 GePol: Fraction of low-weight points (<1% of avg)   =       4.60%
 GePol: Cavity surface area                          =    212.082 Ang**2
 GePol: Cavity volume                                =    216.632 Ang**3
 Leave Link  301 at Tue Feb  9 16:12:06 2021, MaxMem=   536870912 cpu:               0.3 elap:               0.0
 (Enter /usr/local//g16/l302.exe)
 NPDir=0 NMtPBC=     1 NCelOv=     1 NCel=       1 NClECP=     1 NCelD=      1
         NCelK=      1 NCelE2=     1 NClLst=     1 CellRange=     0.0.
 One-electron integrals computed using PRISM.
 One-electron integral symmetry used in STVInt
 NBasis=   198 RedAO= T EigKep=  4.25D-03  NBF=   198
 NBsUse=   198 1.00D-06 EigRej= -1.00D+00 NBFU=   198
 Precomputing XC quadrature grid using
 IXCGrd= 4 IRadAn=           5 IRanWt=          -1 IRanGd=           0 AccXCQ= 0.00D+00.
 Generated NRdTot=       0 NPtTot=           0 NUsed=           0 NTot=          32
 NSgBfM=   198   198   198   198   198 MxSgAt=    16 MxSgA2=    16.
 Leave Link  302 at Tue Feb  9 16:12:06 2021, MaxMem=   536870912 cpu:               1.5 elap:               0.2
 (Enter /usr/local//g16/l303.exe)
 DipDrv:  MaxL=1.
 Leave Link  303 at Tue Feb  9 16:12:06 2021, MaxMem=   536870912 cpu:               0.2 elap:               0.0
 (Enter /usr/local//g16/l401.exe)
 ExpMin= 9.98D-02 ExpMax= 1.94D+04 ExpMxC= 2.91D+03 IAcc=3 IRadAn=         5 AccDes= 0.00D+00
 Harris functional with IExCor=  402 and IRadAn=       5 diagonalized for initial guess.
 HarFok:  IExCor=  402 AccDes= 0.00D+00 IRadAn=         5 IDoV= 1 UseB2=F ITyADJ=14
 ICtDFT=  3500011 ScaDFX=  1.000000  1.000000  1.000000  1.000000
 FoFCou: FMM=F IPFlag=           0 FMFlag=      100000 FMFlg1=           0
         NFxFlg=           0 DoJE=T BraDBF=F KetDBF=T FulRan=T
         wScrn=  0.000000 ICntrl=       500 IOpCl=  0 I1Cent=   200000004 NGrid=           0
         NMat0=    1 NMatS0=      1 NMatT0=    0 NMatD0=    1 NMtDS0=    0 NMtDT0=    0
 Petite list used in FoFCou.
 Harris En= -1289.46772755969    
 JPrj=0 DoOrth=F DoCkMO=F.
 Leave Link  401 at Tue Feb  9 16:12:07 2021, MaxMem=   536870912 cpu:               8.4 elap:               1.1
 (Enter /usr/local//g16/l502.exe)
 Integral symmetry usage will be decided dynamically.
 Closed shell SCF:
 Using DIIS extrapolation, IDIIS=  1040.
 NGot=   536870912 LenX=   536788805 LenY=   536749160
 Requested convergence on RMS density matrix=1.00D-08 within 128 cycles.
 Requested convergence on MAX density matrix=1.00D-06.
 Requested convergence on             energy=1.00D-06.
 No special actions if energy rises.
 Fock matrices will be formed incrementally for  20 cycles.

 Cycle   1  Pass 1  IDiag  1:
 FoFJK:  IHMeth= 1 ICntrl=       0 DoSepK=F KAlg= 0 I1Cent=           0 FoldK=F
 IRaf= 920000000 NMat=       1 IRICut=       1 DoRegI=T DoRafI=F ISym2E= 0 IDoP0=0 IntGTp=1.
 FoFCou: FMM=F IPFlag=           0 FMFlag=      100000 FMFlg1=           0
         NFxFlg=           0 DoJE=F BraDBF=F KetDBF=F FulRan=T
         wScrn=  0.000000 ICntrl=         0 IOpCl=  0 I1Cent=           0 NGrid=           0
         NMat0=    1 NMatS0=      1 NMatT0=    0 NMatD0=    1 NMtDS0=    0 NMtDT0=    0
 Symmetry not used in FoFCou.
 Inv3:  Mode=1 IEnd=     7766643.
 Iteration    1 A*A^-1 deviation from unit magnitude is 6.00D-15 for    408.
 Iteration    1 A*A^-1 deviation from orthogonality  is 5.13D-15 for   1222    224.
 Iteration    1 A^-1*A deviation from unit magnitude is 6.00D-15 for    408.
 Iteration    1 A^-1*A deviation from orthogonality  is 1.53D-14 for   1397   1265.
 E= -1288.21916672479    
 DIIS: error= 5.66D-02 at cycle   1 NSaved=   1.
 NSaved= 1 IEnMin= 1 EnMin= -1288.21916672479     IErMin= 1 ErrMin= 5.66D-02
 ErrMax= 5.66D-02  0.00D+00 EMaxC= 1.00D-01 BMatC= 1.05D+00 BMatP= 1.05D+00
 IDIUse=3 WtCom= 4.34D-01 WtEn= 5.66D-01
 Coeff-Com:  0.100D+01
 Coeff-En:   0.100D+01
 Coeff:      0.100D+01
 Gap=     0.281 Goal=   None    Shift=    0.000
 GapD=    0.281 DampG=1.000 DampE=0.500 DampFc=0.5000 IDamp=-1.
 Damping current iteration by 5.00D-01
 RMSDP=1.37D-02 MaxDP=4.16D-01              OVMax= 3.33D-01

 Cycle   2  Pass 1  IDiag  1:
 RMSU=  6.86D-03    CP:  1.00D+00
 E= -1288.40053536477     Delta-E=       -0.181368639983 Rises=F Damp=T
 DIIS: error= 1.81D-02 at cycle   2 NSaved=   2.
 NSaved= 2 IEnMin= 2 EnMin= -1288.40053536477     IErMin= 2 ErrMin= 1.81D-02
 ErrMax= 1.81D-02  0.00D+00 EMaxC= 1.00D-01 BMatC= 1.30D-01 BMatP= 1.05D+00
 IDIUse=3 WtCom= 8.19D-01 WtEn= 1.81D-01
 Coeff-Com:  0.232D+00 0.768D+00
 Coeff-En:   0.387D+00 0.613D+00
 Coeff:      0.260D+00 0.740D+00
 Gap=     0.229 Goal=   None    Shift=    0.000
 RMSDP=3.74D-03 MaxDP=1.28D-01 DE=-1.81D-01 OVMax= 2.40D-01

 Cycle   3  Pass 1  IDiag  1:
 RMSU=  2.67D-03    CP:  9.95D-01  6.20D-01
 E= -1288.96403323540     Delta-E=       -0.563497870632 Rises=F Damp=F
 DIIS: error= 8.82D-03 at cycle   3 NSaved=   3.
 NSaved= 3 IEnMin= 3 EnMin= -1288.96403323540     IErMin= 3 ErrMin= 8.82D-03
 ErrMax= 8.82D-03  0.00D+00 EMaxC= 1.00D-01 BMatC= 4.42D-02 BMatP= 1.30D-01
 IDIUse=3 WtCom= 9.12D-01 WtEn= 8.82D-02
 Coeff-Com:  0.115D+00 0.410D+00 0.475D+00
 Coeff-En:   0.000D+00 0.000D+00 0.100D+01
 Coeff:      0.105D+00 0.374D+00 0.521D+00
 Gap=     0.272 Goal=   None    Shift=    0.000
 RMSDP=1.51D-03 MaxDP=3.84D-02 DE=-5.63D-01 OVMax= 5.02D-02

 Cycle   4  Pass 1  IDiag  1:
 RMSU=  8.97D-04    CP:  9.99D-01  6.68D-01  5.66D-01
 E= -1289.00145539344     Delta-E=       -0.037422158038 Rises=F Damp=F
 DIIS: error= 3.26D-03 at cycle   4 NSaved=   4.
 NSaved= 4 IEnMin= 4 EnMin= -1289.00145539344     IErMin= 4 ErrMin= 3.26D-03
 ErrMax= 3.26D-03  0.00D+00 EMaxC= 1.00D-01 BMatC= 5.39D-03 BMatP= 4.42D-02
 IDIUse=3 WtCom= 9.67D-01 WtEn= 3.26D-02
 Coeff-Com:  0.199D-01 0.748D-01 0.264D+00 0.641D+00
 Coeff-En:   0.000D+00 0.000D+00 0.504D-01 0.950D+00
 Coeff:      0.193D-01 0.723D-01 0.257D+00 0.651D+00
 Gap=     0.239 Goal=   None    Shift=    0.000
 RMSDP=4.55D-04 MaxDP=1.34D-02 DE=-3.74D-02 OVMax= 1.87D-02

 Cycle   5  Pass 1  IDiag  1:
 RMSU=  3.04D-04    CP:  9.99D-01  6.53D-01  6.43D-01  7.24D-01
 E= -1289.00503421328     Delta-E=       -0.003578819838 Rises=F Damp=F
 DIIS: error= 1.46D-03 at cycle   5 NSaved=   5.
 NSaved= 5 IEnMin= 5 EnMin= -1289.00503421328     IErMin= 5 ErrMin= 1.46D-03
 ErrMax= 1.46D-03  0.00D+00 EMaxC= 1.00D-01 BMatC= 9.43D-04 BMatP= 5.39D-03
 IDIUse=3 WtCom= 9.85D-01 WtEn= 1.46D-02
 Coeff-Com:  0.240D-02 0.694D-02 0.108D+00 0.392D+00 0.490D+00
 Coeff-En:   0.000D+00 0.000D+00 0.000D+00 0.103D+00 0.897D+00
 Coeff:      0.237D-02 0.684D-02 0.107D+00 0.388D+00 0.496D+00
 Gap=     0.234 Goal=   None    Shift=    0.000
 RMSDP=1.90D-04 MaxDP=5.24D-03 DE=-3.58D-03 OVMax= 7.25D-03

 Cycle   6  Pass 1  IDiag  1:
 RMSU=  7.81D-05    CP:  9.99D-01  6.59D-01  6.43D-01  7.78D-01  4.70D-01
 E= -1289.00571619282     Delta-E=       -0.000681979545 Rises=F Damp=F
 DIIS: error= 3.94D-04 at cycle   6 NSaved=   6.
 NSaved= 6 IEnMin= 6 EnMin= -1289.00571619282     IErMin= 6 ErrMin= 3.94D-04
 ErrMax= 3.94D-04  0.00D+00 EMaxC= 1.00D-01 BMatC= 7.39D-05 BMatP= 9.43D-04
 IDIUse=3 WtCom= 9.96D-01 WtEn= 3.94D-03
 Coeff-Com:  0.535D-03-0.879D-03 0.431D-01 0.169D+00 0.290D+00 0.497D+00
 Coeff-En:   0.000D+00 0.000D+00 0.000D+00 0.000D+00 0.264D-02 0.997D+00
 Coeff:      0.533D-03-0.875D-03 0.430D-01 0.169D+00 0.289D+00 0.499D+00
 Gap=     0.234 Goal=   None    Shift=    0.000
 RMSDP=5.00D-05 MaxDP=1.72D-03 DE=-6.82D-04 OVMax= 1.69D-03

 Cycle   7  Pass 1  IDiag  1:
 RMSU=  2.49D-05    CP:  9.99D-01  6.58D-01  6.45D-01  7.80D-01  5.19D-01
                    CP:  4.93D-01
 E= -1289.00577620354     Delta-E=       -0.000060010720 Rises=F Damp=F
 DIIS: error= 6.86D-05 at cycle   7 NSaved=   7.
 NSaved= 7 IEnMin= 7 EnMin= -1289.00577620354     IErMin= 7 ErrMin= 6.86D-05
 ErrMax= 6.86D-05  0.00D+00 EMaxC= 1.00D-01 BMatC= 2.30D-06 BMatP= 7.39D-05
 IDIUse=1 WtCom= 1.00D+00 WtEn= 0.00D+00
 Coeff-Com:  0.200D-03-0.135D-02 0.988D-02 0.375D-01 0.836D-01 0.206D+00
 Coeff-Com:  0.664D+00
 Coeff:      0.200D-03-0.135D-02 0.988D-02 0.375D-01 0.836D-01 0.206D+00
 Coeff:      0.664D+00
 Gap=     0.234 Goal=   None    Shift=    0.000
 RMSDP=8.74D-06 MaxDP=2.78D-04 DE=-6.00D-05 OVMax= 3.15D-04

 Cycle   8  Pass 1  IDiag  1:
 RMSU=  6.03D-06    CP:  9.99D-01  6.57D-01  6.45D-01  7.78D-01  5.21D-01
                    CP:  5.45D-01  8.36D-01
 E= -1289.00577764690     Delta-E=       -0.000001443359 Rises=F Damp=F
 DIIS: error= 3.73D-05 at cycle   8 NSaved=   8.
 NSaved= 8 IEnMin= 8 EnMin= -1289.00577764690     IErMin= 8 ErrMin= 3.73D-05
 ErrMax= 3.73D-05  0.00D+00 EMaxC= 1.00D-01 BMatC= 5.12D-07 BMatP= 2.30D-06
 IDIUse=1 WtCom= 1.00D+00 WtEn= 0.00D+00
 Coeff-Com:  0.114D-03-0.799D-03 0.248D-02 0.838D-02 0.275D-01 0.842D-01
 Coeff-Com:  0.401D+00 0.477D+00
 Coeff:      0.114D-03-0.799D-03 0.248D-02 0.838D-02 0.275D-01 0.842D-01
 Coeff:      0.401D+00 0.477D+00
 Gap=     0.234 Goal=   None    Shift=    0.000
 RMSDP=3.59D-06 MaxDP=1.13D-04 DE=-1.44D-06 OVMax= 1.14D-04

 Cycle   9  Pass 1  IDiag  1:
 RMSU=  1.94D-06    CP:  9.99D-01  6.57D-01  6.45D-01  7.77D-01  5.24D-01
                    CP:  5.47D-01  8.50D-01  5.71D-01
 E= -1289.00577802908     Delta-E=       -0.000000382181 Rises=F Damp=F
 DIIS: error= 4.97D-06 at cycle   9 NSaved=   9.
 NSaved= 9 IEnMin= 9 EnMin= -1289.00577802908     IErMin= 9 ErrMin= 4.97D-06
 ErrMax= 4.97D-06  0.00D+00 EMaxC= 1.00D-01 BMatC= 1.36D-08 BMatP= 5.12D-07
 IDIUse=1 WtCom= 1.00D+00 WtEn= 0.00D+00
 Coeff-Com:  0.435D-04-0.188D-03 0.195D-03 0.133D-03 0.405D-02 0.148D-01
 Coeff-Com:  0.935D-01 0.187D+00 0.701D+00
 Coeff:      0.435D-04-0.188D-03 0.195D-03 0.133D-03 0.405D-02 0.148D-01
 Coeff:      0.935D-01 0.187D+00 0.701D+00
 Gap=     0.234 Goal=   None    Shift=    0.000
 RMSDP=7.26D-07 MaxDP=3.57D-05 DE=-3.82D-07 OVMax= 2.11D-05

 Cycle  10  Pass 1  IDiag  1:
 RMSU=  4.76D-07    CP:  9.99D-01  6.57D-01  6.45D-01  7.77D-01  5.24D-01
                    CP:  5.47D-01  8.58D-01  6.26D-01  8.24D-01
 E= -1289.00577803910     Delta-E=       -0.000000010016 Rises=F Damp=F
 DIIS: error= 1.58D-06 at cycle  10 NSaved=  10.
 NSaved=10 IEnMin=10 EnMin= -1289.00577803910     IErMin=10 ErrMin= 1.58D-06
 ErrMax= 1.58D-06  0.00D+00 EMaxC= 1.00D-01 BMatC= 1.48D-09 BMatP= 1.36D-08
 IDIUse=1 WtCom= 1.00D+00 WtEn= 0.00D+00
 Coeff-Com:  0.143D-04-0.421D-04-0.461D-04-0.385D-03 0.424D-03 0.234D-02
 Coeff-Com:  0.207D-01 0.612D-01 0.343D+00 0.573D+00
 Coeff:      0.143D-04-0.421D-04-0.461D-04-0.385D-03 0.424D-03 0.234D-02
 Coeff:      0.207D-01 0.612D-01 0.343D+00 0.573D+00
 Gap=     0.234 Goal=   None    Shift=    0.000
 RMSDP=2.28D-07 MaxDP=5.77D-06 DE=-1.00D-08 OVMax= 5.78D-06

 Cycle  11  Pass 1  IDiag  1:
 RMSU=  1.66D-07    CP:  9.99D-01  6.57D-01  6.45D-01  7.77D-01  5.24D-01
                    CP:  5.47D-01  8.59D-01  6.24D-01  8.68D-01  7.50D-01
 E= -1289.00577804015     Delta-E=       -0.000000001046 Rises=F Damp=F
 DIIS: error= 5.60D-07 at cycle  11 NSaved=  11.
 NSaved=11 IEnMin=11 EnMin= -1289.00577804015     IErMin=11 ErrMin= 5.60D-07
 ErrMax= 5.60D-07  0.00D+00 EMaxC= 1.00D-01 BMatC= 1.88D-10 BMatP= 1.48D-09
 IDIUse=1 WtCom= 1.00D+00 WtEn= 0.00D+00
 Coeff-Com: -0.446D-06 0.789D-05-0.552D-04-0.195D-03-0.390D-03-0.993D-03
 Coeff-Com: -0.419D-02 0.162D-02 0.653D-01 0.291D+00 0.648D+00
 Coeff:     -0.446D-06 0.789D-05-0.552D-04-0.195D-03-0.390D-03-0.993D-03
 Coeff:     -0.419D-02 0.162D-02 0.653D-01 0.291D+00 0.648D+00
 Gap=     0.234 Goal=   None    Shift=    0.000
 RMSDP=6.98D-08 MaxDP=3.43D-06 DE=-1.05D-09 OVMax= 2.01D-06

 Cycle  12  Pass 1  IDiag  1:
 RMSU=  3.58D-08    CP:  9.99D-01  6.57D-01  6.45D-01  7.77D-01  5.24D-01
                    CP:  5.47D-01  8.59D-01  6.27D-01  8.78D-01  8.00D-01
                    CP:  7.15D-01
 E= -1289.00577804028     Delta-E=       -0.000000000133 Rises=F Damp=F
 DIIS: error= 1.06D-07 at cycle  12 NSaved=  12.
 NSaved=12 IEnMin=12 EnMin= -1289.00577804028     IErMin=12 ErrMin= 1.06D-07
 ErrMax= 1.06D-07  0.00D+00 EMaxC= 1.00D-01 BMatC= 1.01D-11 BMatP= 1.88D-10
 IDIUse=1 WtCom= 1.00D+00 WtEn= 0.00D+00
 Coeff-Com: -0.112D-05 0.583D-05-0.258D-04-0.786D-04-0.212D-03-0.538D-03
 Coeff-Com: -0.265D-02-0.156D-02 0.151D-01 0.107D+00 0.286D+00 0.597D+00
 Coeff:     -0.112D-05 0.583D-05-0.258D-04-0.786D-04-0.212D-03-0.538D-03
 Coeff:     -0.265D-02-0.156D-02 0.151D-01 0.107D+00 0.286D+00 0.597D+00
 Gap=     0.234 Goal=   None    Shift=    0.000
 RMSDP=1.80D-08 MaxDP=5.38D-07 DE=-1.33D-10 OVMax= 5.88D-07

 Cycle  13  Pass 1  IDiag  1:
 RMSU=  1.32D-08    CP:  9.99D-01  6.57D-01  6.45D-01  7.77D-01  5.24D-01
                    CP:  5.47D-01  8.59D-01  6.27D-01  8.79D-01  8.07D-01
                    CP:  7.54D-01  7.78D-01
 E= -1289.00577804029     Delta-E=       -0.000000000015 Rises=F Damp=F
 DIIS: error= 5.38D-08 at cycle  13 NSaved=  13.
 NSaved=13 IEnMin=13 EnMin= -1289.00577804029     IErMin=13 ErrMin= 5.38D-08
 ErrMax= 5.38D-08  0.00D+00 EMaxC= 1.00D-01 BMatC= 1.55D-12 BMatP= 1.01D-11
 IDIUse=1 WtCom= 1.00D+00 WtEn= 0.00D+00
 Coeff-Com: -0.704D-06 0.213D-05-0.739D-05-0.173D-04-0.668D-04-0.153D-03
 Coeff-Com: -0.850D-03-0.925D-03-0.629D-04 0.220D-01 0.720D-01 0.314D+00
 Coeff-Com:  0.594D+00
 Coeff:     -0.704D-06 0.213D-05-0.739D-05-0.173D-04-0.668D-04-0.153D-03
 Coeff:     -0.850D-03-0.925D-03-0.629D-04 0.220D-01 0.720D-01 0.314D+00
 Coeff:      0.594D+00
 Gap=     0.234 Goal=   None    Shift=    0.000
 RMSDP=6.61D-09 MaxDP=1.86D-07 DE=-1.50D-11 OVMax= 2.46D-07

 Error on total polarization charges =  0.00727
 SCF Done:  E(RB3LYP) =  -1289.00577804     A.U. after   13 cycles
            NFock= 13  Conv=0.66D-08     -V/T= 2.0061
 KE= 1.281133732339D+03 PE=-5.019448495297D+03 EE= 1.492767156741D+03
 Leave Link  502 at Tue Feb  9 16:12:38 2021, MaxMem=   536870912 cpu:             244.3 elap:              30.7
 (Enter /usr/local//g16/l601.exe)
 Copying SCF densities to generalized density rwf, IOpCl= 0 IROHF=0.

 **********************************************************************

            Population analysis using the SCF density.

 **********************************************************************

 Orbital symmetries:
       Occupied  (A) (A) (A) (A) (A) (A) (A) (A) (A) (A) (A) (A)
                 (A) (A) (A) (A) (A) (A) (A) (A) (A) (A) (A) (A)
                 (A) (A) (A) (A) (A) (A) (A) (A) (A) (A) (A) (A)
                 (A) (A) (A) (A) (A) (A) (A) (A) (A) (A) (A) (A)
                 (A) (A) (A) (A) (A)
       Virtual   (A) (A) (A) (A) (A) (A) (A) (A) (A) (A) (A) (A)
                 (A) (A) (A) (A) (A) (A) (A) (A) (A) (A) (A) (A)
                 (A) (A) (A) (A) (A) (A) (A) (A) (A) (A) (A) (A)
                 (A) (A) (A) (A) (A) (A) (A) (A) (A) (A) (A) (A)
                 (A) (A) (A) (A) (A) (A) (A) (A) (A) (A) (A) (A)
                 (A) (A) (A) (A) (A) (A) (A) (A) (A) (A) (A) (A)
                 (A) (A) (A) (A) (A) (A) (A) (A) (A) (A) (A) (A)
                 (A) (A) (A) (A) (A) (A) (A) (A) (A) (A) (A) (A)
                 (A) (A) (A) (A) (A) (A) (A) (A) (A) (A) (A) (A)
                 (A) (A) (A) (A) (A) (A) (A) (A) (A) (A) (A) (A)
                 (A) (A) (A) (A) (A) (A) (A) (A) (A) (A) (A) (A)
                 (A) (A) (A) (A) (A) (A) (A) (A) (A) (A) (A) (A)
                 (A)
 The electronic state is 1-A.
 Alpha  occ. eigenvalues --  -77.12150 -77.08016 -19.11185 -19.09423 -19.03883
 Alpha  occ. eigenvalues --  -19.03861 -19.01301 -19.01144 -18.96931 -10.17349
 Alpha  occ. eigenvalues --  -10.14076  -6.57051  -6.52763  -4.73575  -4.73260
 Alpha  occ. eigenvalues --   -4.73192  -4.69112  -4.69067  -4.69042  -0.98414
 Alpha  occ. eigenvalues --   -0.96317  -0.90214  -0.89534  -0.86312  -0.83792
 Alpha  occ. eigenvalues --   -0.76367  -0.70027  -0.57198  -0.50789  -0.46870
 Alpha  occ. eigenvalues --   -0.43230  -0.39200  -0.38207  -0.37029  -0.35863
 Alpha  occ. eigenvalues --   -0.34909  -0.33429  -0.31346  -0.30202  -0.29156
 Alpha  occ. eigenvalues --   -0.28908  -0.27678  -0.25885  -0.24501  -0.22500
 Alpha  occ. eigenvalues --   -0.21652  -0.21278  -0.20916  -0.20263  -0.19549
 Alpha  occ. eigenvalues --   -0.16897  -0.14311  -0.12900
 Alpha virt. eigenvalues --    0.10523   0.14454   0.15019   0.16061   0.18670
 Alpha virt. eigenvalues --    0.19877   0.20756   0.22175   0.23137   0.23675
 Alpha virt. eigenvalues --    0.25604   0.26133   0.28397   0.30137   0.33525
 Alpha virt. eigenvalues --    0.37946   0.40980   0.43333   0.44685   0.46869
 Alpha virt. eigenvalues --    0.47689   0.51018   0.52593   0.59853   0.63011
 Alpha virt. eigenvalues --    0.63526   0.70045   0.71041   0.72540   0.77176
 Alpha virt. eigenvalues --    0.80222   0.81081   0.84183   0.84455   0.86975
 Alpha virt. eigenvalues --    0.88220   0.89785   0.90230   0.93201   0.94280
 Alpha virt. eigenvalues --    0.94320   0.96772   0.97956   0.99036   1.01142
 Alpha virt. eigenvalues --    1.03455   1.05744   1.06302   1.07571   1.08523
 Alpha virt. eigenvalues --    1.10743   1.11142   1.11252   1.12349   1.14759
 Alpha virt. eigenvalues --    1.15630   1.17091   1.18043   1.22513   1.22938
 Alpha virt. eigenvalues --    1.24556   1.24820   1.28503   1.29993   1.31278
 Alpha virt. eigenvalues --    1.37107   1.38394   1.45887   1.47437   1.49832
 Alpha virt. eigenvalues --    1.53284   1.57176   1.58939   1.62947   1.67346
 Alpha virt. eigenvalues --    1.69743   1.72805   1.74659   1.79707   1.81825
 Alpha virt. eigenvalues --    1.85534   1.87947   1.88983   1.89763   1.90037
 Alpha virt. eigenvalues --    1.90955   1.92577   1.94086   1.94566   1.95731
 Alpha virt. eigenvalues --    1.96825   1.97980   1.98428   1.99955   2.04035
 Alpha virt. eigenvalues --    2.05692   2.06918   2.08125   2.09777   2.10360
 Alpha virt. eigenvalues --    2.13013   2.15762   2.18191   2.20624   2.22219
 Alpha virt. eigenvalues --    2.24928   2.31516   2.32972   2.35987   2.38099
 Alpha virt. eigenvalues --    2.42836   2.47979   2.48960   2.54207   2.55580
 Alpha virt. eigenvalues --    2.56262   2.66355   2.67746   2.72447   2.74505
 Alpha virt. eigenvalues --    2.78783   2.82814   2.85464   2.87150   2.89937
 Alpha virt. eigenvalues --    2.91477   2.91929   2.98788   3.05922   3.25390
 Alpha virt. eigenvalues --    3.42134   3.48034   3.48411   3.53480   3.58687
 Alpha virt. eigenvalues --    3.65353   3.82671   3.90078   3.95116   3.97166
 Alpha virt. eigenvalues --    4.06180   4.14023   4.23847   4.42477   4.62836
     Molecular Orbital Coefficients:
                           1         2         3         4         5
                           O         O         O         O         O
     Eigenvalues --   -77.12150 -77.08016 -19.11185 -19.09423 -19.03883
   1 1   C  1S         -0.00001  -0.00001  -0.00003   0.00000  -0.00002
   2        2S         -0.00002   0.00000  -0.00017   0.00008  -0.00009
   3        2PX         0.00001  -0.00001   0.00001   0.00002   0.00007
   4        2PY         0.00002   0.00004   0.00001   0.00003   0.00004
   5        2PZ        -0.00002  -0.00002   0.00003   0.00009  -0.00002
   6        3S          0.00003  -0.00006   0.00106   0.00026   0.00009
   7        3PX         0.00004  -0.00009  -0.00023  -0.00009  -0.00045
   8        3PY         0.00015   0.00014  -0.00045  -0.00031  -0.00029
   9        3PZ        -0.00013  -0.00011   0.00025  -0.00032  -0.00009
  10        4XX        -0.00001  -0.00002  -0.00003   0.00002  -0.00003
  11        4YY        -0.00004  -0.00005  -0.00003   0.00000  -0.00003
  12        4ZZ        -0.00003  -0.00003  -0.00002  -0.00007  -0.00003
  13        4XY        -0.00000   0.00001   0.00001  -0.00000   0.00001
  14        4XZ         0.00002  -0.00002  -0.00001  -0.00000   0.00001
  15        4YZ         0.00001   0.00001  -0.00003  -0.00000   0.00001
  16 2   H  1S          0.00002   0.00001  -0.00007  -0.00005   0.00001
  17        2S         -0.00020  -0.00013  -0.00004  -0.00029  -0.00008
  18        3PX         0.00002  -0.00001   0.00001   0.00001   0.00001
  19        3PY         0.00002   0.00002   0.00002   0.00002  -0.00002
  20        3PZ        -0.00002  -0.00001  -0.00001  -0.00002  -0.00001
  21 3   H  1S         -0.00001   0.00002  -0.00001   0.00007   0.00005
  22        2S         -0.00002  -0.00013   0.00013   0.00011   0.00029
  23        3PX         0.00000  -0.00001  -0.00001   0.00000  -0.00001
  24        3PY        -0.00001   0.00003  -0.00000  -0.00000  -0.00002
  25        3PZ         0.00001  -0.00001  -0.00000   0.00005   0.00000
  26 4   C  1S         -0.00004  -0.00004  -0.00000  -0.00002  -0.00003
  27        2S         -0.00004  -0.00008  -0.00004   0.00006  -0.00018
  28        2PX        -0.00005   0.00004  -0.00008   0.00002   0.00001
  29        2PY        -0.00001  -0.00001   0.00005   0.00018  -0.00002
  30        2PZ        -0.00001   0.00001  -0.00004   0.00026   0.00005
  31        3S          0.00094   0.00115   0.00027  -0.00093   0.00098
  32        3PX        -0.00034   0.00043  -0.00011  -0.00022  -0.00057
  33        3PY        -0.00020  -0.00016  -0.00081  -0.00068  -0.00012
  34        3PZ         0.00006  -0.00002   0.00040  -0.00070  -0.00029
  35        4XX        -0.00012  -0.00013   0.00006   0.00003   0.00001
  36        4YY        -0.00010  -0.00010   0.00000   0.00008  -0.00001
  37        4ZZ        -0.00007  -0.00008  -0.00002   0.00022  -0.00003
  38        4XY        -0.00004   0.00004   0.00003   0.00001   0.00004
  39        4XZ        -0.00001   0.00000  -0.00001  -0.00000   0.00001
  40        4YZ        -0.00000  -0.00000   0.00002   0.00014   0.00002
  41 5   O  1S          0.00000  -0.00000  -0.00005   0.99276   0.00002
  42        2S          0.00002  -0.00001  -0.00011   0.02586   0.00005
  43        2PX        -0.00000  -0.00001   0.00002   0.00044  -0.00003
  44        2PY         0.00001   0.00001   0.00003  -0.00077  -0.00003
  45        2PZ         0.00001   0.00001  -0.00000  -0.00015  -0.00000
  46        3S         -0.00022  -0.00015   0.00039   0.01206  -0.00015
  47        3PX         0.00013  -0.00002  -0.00018   0.00005   0.00016
  48        3PY         0.00005   0.00002  -0.00006  -0.00033   0.00009
  49        3PZ         0.00009   0.00015  -0.00007  -0.00029   0.00007
  50        4XX         0.00000   0.00000  -0.00003  -0.00802   0.00006
  51        4YY        -0.00000  -0.00002  -0.00005  -0.00804   0.00003
  52        4ZZ        -0.00000  -0.00001  -0.00005  -0.00811   0.00004
  53        4XY         0.00002  -0.00004   0.00003  -0.00005  -0.00002
  54        4XZ        -0.00001   0.00001   0.00002   0.00004  -0.00002
  55        4YZ         0.00000  -0.00000  -0.00003  -0.00010  -0.00001
  56 6   H  1S          0.00001  -0.00002  -0.00009   0.00025   0.00003
  57        2S         -0.00014  -0.00022   0.00016  -0.00155  -0.00016
  58        3PX         0.00002   0.00002   0.00001   0.00010   0.00001
  59        3PY         0.00001  -0.00001   0.00002  -0.00008  -0.00002
  60        3PZ         0.00002  -0.00001   0.00001   0.00015   0.00001
  61 7   P  1S         -0.00004   0.99625   0.00000   0.00000  -0.00000
  62        2S          0.00000   0.01417   0.00000   0.00001  -0.00003
  63        2PX        -0.00001  -0.00002  -0.00001  -0.00000  -0.00000
  64        2PY         0.00000   0.00001   0.00000   0.00000  -0.00000
  65        2PZ        -0.00000   0.00001   0.00000  -0.00000  -0.00001
  66        3S          0.00013  -0.02714   0.00003   0.00013  -0.00009
  67        3PX         0.00009   0.00012   0.00005  -0.00004   0.00006
  68        3PY        -0.00004  -0.00011  -0.00001   0.00001   0.00003
  69        3PZ         0.00002  -0.00002  -0.00001   0.00008   0.00008
  70        4S         -0.00022   0.00263  -0.00030   0.00004   0.00055
  71        4PX         0.00014  -0.00030   0.00015  -0.00006  -0.00022
  72        4PY         0.00010  -0.00009   0.00004  -0.00023   0.00006
  73        4PZ         0.00002   0.00001   0.00015   0.00024  -0.00006
  74        5XX        -0.00011   0.00940  -0.00005  -0.00003  -0.00003
  75        5YY        -0.00003   0.00942   0.00001  -0.00001  -0.00004
  76        5ZZ        -0.00003   0.00945  -0.00001  -0.00001  -0.00004
  77        5XY         0.00002   0.00001   0.00002  -0.00002  -0.00001
  78        5XZ         0.00002   0.00002   0.00003   0.00003  -0.00001
  79        5YZ        -0.00000  -0.00000  -0.00002  -0.00003   0.00001
  80 8   P  1S          0.99625   0.00004   0.00001   0.00000   0.00002
  81        2S          0.01417   0.00001   0.00002   0.00006  -0.00003
  82        2PX        -0.00001   0.00001   0.00004  -0.00000  -0.00001
  83        2PY         0.00003   0.00001  -0.00006  -0.00001  -0.00000
  84        2PZ         0.00001   0.00000  -0.00002   0.00001   0.00002
  85        3S         -0.02720   0.00015   0.00012   0.00034   0.00093
  86        3PX        -0.00009  -0.00008   0.00008   0.00008   0.00008
  87        3PY        -0.00012  -0.00006   0.00023   0.00016   0.00007
  88        3PZ        -0.00001  -0.00002   0.00004  -0.00003  -0.00022
  89        4S          0.00291  -0.00026  -0.00312  -0.00142  -0.00399
  90        4PX         0.00026  -0.00016   0.00032  -0.00030   0.00005
  91        4PY         0.00011   0.00009  -0.00129  -0.00056  -0.00063
  92        4PZ        -0.00017   0.00004  -0.00111  -0.00039   0.00238
  93        5XX         0.00940  -0.00011   0.00019   0.00000  -0.00020
  94        5YY         0.00943  -0.00002   0.00019   0.00004  -0.00026
  95        5ZZ         0.00947  -0.00003  -0.00001  -0.00003  -0.00006
  96        5XY        -0.00002  -0.00002  -0.00012   0.00002   0.00001
  97        5XZ        -0.00001   0.00000  -0.00008  -0.00000   0.00003
  98        5YZ         0.00000  -0.00000   0.00011   0.00001   0.00005
  99 9   O  1S          0.00001   0.00000   0.00000  -0.00001  -0.00001
 100        2S          0.00002  -0.00006   0.00003  -0.00000   0.00003
 101        2PX        -0.00001   0.00003  -0.00000   0.00001  -0.00002
 102        2PY         0.00000  -0.00004   0.00002  -0.00001  -0.00001
 103        2PZ        -0.00001   0.00016   0.00000  -0.00004  -0.00001
 104        3S         -0.00008   0.00065  -0.00015   0.00001  -0.00017
 105        3PX         0.00002  -0.00005   0.00000  -0.00009   0.00006
 106        3PY        -0.00002   0.00012  -0.00007   0.00013   0.00003
 107        3PZ         0.00005  -0.00040   0.00000   0.00021   0.00006
 108        4XX         0.00002   0.00001   0.00003   0.00002   0.00003
 109        4YY         0.00004   0.00002   0.00003   0.00000   0.00003
 110        4ZZ         0.00002  -0.00020   0.00003  -0.00002   0.00003
 111        4XY        -0.00000   0.00001   0.00001  -0.00001  -0.00001
 112        4XZ        -0.00001  -0.00008   0.00000  -0.00003  -0.00001
 113        4YZ         0.00001   0.00006   0.00000   0.00002   0.00000
 114 10  O  1S          0.00001   0.00001  -0.00004  -0.00003  -0.01366
 115        2S         -0.00005   0.00003  -0.00021  -0.00016  -0.00032
 116        2PX         0.00002   0.00002  -0.00001  -0.00001   0.00001
 117        2PY        -0.00012   0.00001  -0.00002  -0.00004   0.00003
 118        2PZ         0.00012   0.00001  -0.00005  -0.00001   0.00005
 119        3S          0.00060  -0.00009   0.00127   0.00077  -0.00033
 120        3PX        -0.00009  -0.00007  -0.00001   0.00006  -0.00004
 121        3PY         0.00029  -0.00004   0.00041   0.00029  -0.00005
 122        3PZ        -0.00029  -0.00001   0.00005   0.00000  -0.00039
 123        4XX         0.00004   0.00001  -0.00016  -0.00012   0.00017
 124        4YY        -0.00010   0.00003  -0.00012  -0.00008   0.00015
 125        4ZZ        -0.00008   0.00003  -0.00015  -0.00014   0.00020
 126        4XY        -0.00000  -0.00001   0.00005   0.00001  -0.00001
 127        4XZ        -0.00000   0.00000   0.00002  -0.00000  -0.00000
 128        4YZ         0.00015   0.00001  -0.00001  -0.00001  -0.00005
 129 11  O  1S         -0.00002  -0.00000   0.99273   0.00001  -0.00001
 130        2S         -0.00005  -0.00001   0.02582  -0.00014  -0.00014
 131        2PX        -0.00001  -0.00001  -0.00014  -0.00000  -0.00002
 132        2PY         0.00004  -0.00000  -0.00005   0.00002   0.00000
 133        2PZ         0.00003   0.00000  -0.00091   0.00001   0.00004
 134        3S          0.00081   0.00003   0.01229   0.00068   0.00082
 135        3PX         0.00012   0.00004   0.00057   0.00015   0.00025
 136        3PY        -0.00025   0.00001  -0.00033  -0.00008  -0.00013
 137        3PZ        -0.00025  -0.00001   0.00005  -0.00004  -0.00033
 138        4XX        -0.00015  -0.00001  -0.00811  -0.00005  -0.00005
 139        4YY        -0.00013  -0.00001  -0.00814  -0.00007  -0.00008
 140        4ZZ        -0.00002  -0.00001  -0.00810  -0.00005  -0.00010
 141        4XY         0.00009  -0.00000   0.00000  -0.00001   0.00000
 142        4XZ         0.00010  -0.00000   0.00004   0.00001  -0.00003
 143        4YZ        -0.00007   0.00000  -0.00003  -0.00003  -0.00001
 144 12  O  1S         -0.00000  -0.00001  -0.00000  -0.00002   0.00000
 145        2S         -0.00001  -0.00004  -0.00002  -0.00010   0.00002
 146        2PX         0.00001   0.00004   0.00001   0.00003  -0.00001
 147        2PY        -0.00000   0.00005   0.00000   0.00000  -0.00000
 148        2PZ         0.00000  -0.00002   0.00000  -0.00000  -0.00001
 149        3S         -0.00000   0.00073   0.00009   0.00045  -0.00013
 150        3PX        -0.00004  -0.00027  -0.00005  -0.00013   0.00003
 151        3PY         0.00000  -0.00031  -0.00002  -0.00003   0.00001
 152        3PZ        -0.00001   0.00014  -0.00002   0.00002   0.00002
 153        4XX         0.00000  -0.00013  -0.00001  -0.00007   0.00002
 154        4YY        -0.00000  -0.00011  -0.00002  -0.00009   0.00002
 155        4ZZ        -0.00001  -0.00004  -0.00002  -0.00009   0.00002
 156        4XY         0.00001  -0.00011   0.00000   0.00000  -0.00000
 157        4XZ        -0.00000   0.00006   0.00000  -0.00001  -0.00000
 158        4YZ         0.00000   0.00005   0.00000   0.00001  -0.00000
 159 13  O  1S          0.00000   0.00001  -0.00001   0.00001   0.00001
 160        2S          0.00002  -0.00004  -0.00004   0.00002  -0.00005
 161        2PX        -0.00002  -0.00002  -0.00001  -0.00000   0.00004
 162        2PY         0.00000  -0.00013  -0.00001  -0.00000  -0.00000
 163        2PZ        -0.00001  -0.00012  -0.00000   0.00002  -0.00000
 164        3S         -0.00001   0.00049   0.00022  -0.00007   0.00016
 165        3PX         0.00007   0.00009   0.00003   0.00002  -0.00014
 166        3PY        -0.00001   0.00030   0.00005   0.00004   0.00002
 167        3PZ         0.00002   0.00029   0.00002  -0.00008   0.00002
 168        4XX        -0.00001   0.00006  -0.00003   0.00002  -0.00003
 169        4YY         0.00002  -0.00008  -0.00002   0.00003  -0.00006
 170        4ZZ         0.00002  -0.00007  -0.00002   0.00001  -0.00007
 171        4XY         0.00001  -0.00001   0.00000   0.00001  -0.00001
 172        4XZ         0.00000  -0.00001  -0.00000   0.00000  -0.00000
 173        4YZ        -0.00001  -0.00014  -0.00000   0.00000   0.00002
 174 14  O  1S          0.00002   0.00001  -0.00003  -0.00000   0.99263
 175        2S          0.00000   0.00001  -0.00004   0.00000   0.02556
 176        2PX        -0.00002   0.00002   0.00003  -0.00000   0.00010
 177        2PY        -0.00003   0.00001  -0.00004  -0.00002   0.00012
 178        2PZ        -0.00017   0.00001   0.00001   0.00001   0.00067
 179        3S          0.00031  -0.00004   0.00030   0.00002   0.01291
 180        3PX         0.00000  -0.00003  -0.00009   0.00002   0.00022
 181        3PY         0.00005  -0.00002   0.00026   0.00009   0.00032
 182        3PZ         0.00039  -0.00002   0.00017   0.00003   0.00053
 183        4XX         0.00007   0.00001  -0.00004   0.00001  -0.00818
 184        4YY         0.00007   0.00003  -0.00002   0.00001  -0.00816
 185        4ZZ        -0.00015   0.00001  -0.00000   0.00002  -0.00818
 186        4XY        -0.00002  -0.00000   0.00004  -0.00001   0.00000
 187        4XZ        -0.00007  -0.00001   0.00002  -0.00000   0.00000
 188        4YZ        -0.00006  -0.00001   0.00001   0.00000   0.00002
 189 15  H  1S          0.00001  -0.00001  -0.00003   0.00004  -0.00008
 190        2S         -0.00018  -0.00002  -0.00002   0.00009   0.00013
 191        3PX         0.00000   0.00001  -0.00001  -0.00000   0.00001
 192        3PY         0.00003  -0.00001  -0.00000   0.00000  -0.00001
 193        3PZ        -0.00001   0.00001   0.00001   0.00005   0.00000
 194 16  H  1S         -0.00011   0.00000   0.00030  -0.00006  -0.00008
 195        2S         -0.00023  -0.00002  -0.00087   0.00009   0.00040
 196        3PX         0.00001  -0.00000  -0.00010  -0.00000   0.00001
 197        3PY         0.00000  -0.00000   0.00007   0.00001  -0.00001
 198        3PZ        -0.00002   0.00001  -0.00011  -0.00001  -0.00002
                           6         7         8         9        10
                           O         O         O         O         O
     Eigenvalues --   -19.03861 -19.01301 -19.01144 -18.96931 -10.17349
   1 1   C  1S          0.00003   0.00001  -0.00003   0.00001   0.00320
   2        2S          0.00009   0.00004  -0.00012   0.00000  -0.00012
   3        2PX        -0.00005   0.00001  -0.00004   0.00001  -0.00004
   4        2PY        -0.00005  -0.00000   0.00005   0.00001  -0.00006
   5        2PZ        -0.00000  -0.00003   0.00001  -0.00000  -0.00005
   6        3S         -0.00027  -0.00024   0.00058  -0.00021   0.00565
   7        3PX         0.00043  -0.00028   0.00034   0.00012   0.00030
   8        3PY         0.00043   0.00004  -0.00032   0.00024  -0.00092
   9        3PZ        -0.00004  -0.00015   0.00029   0.00007   0.00207
  10        4XX         0.00007   0.00001  -0.00008   0.00007  -0.00011
  11        4YY         0.00004   0.00002  -0.00007   0.00001  -0.00034
  12        4ZZ         0.00004  -0.00002  -0.00003   0.00001  -0.00027
  13        4XY         0.00001   0.00001   0.00001  -0.00001   0.00002
  14        4XZ         0.00001  -0.00002   0.00001  -0.00001  -0.00000
  15        4YZ         0.00001   0.00001  -0.00002  -0.00000   0.00018
  16 2   H  1S          0.00008   0.00004  -0.00009  -0.00000  -0.00005
  17        2S         -0.00009  -0.00015   0.00028   0.00028  -0.00013
  18        3PX        -0.00002   0.00001  -0.00001   0.00002  -0.00001
  19        3PY        -0.00001  -0.00000   0.00001  -0.00001   0.00002
  20        3PZ        -0.00001  -0.00000   0.00002   0.00003   0.00000
  21 3   H  1S         -0.00005   0.00001  -0.00004   0.00007  -0.00026
  22        2S         -0.00027   0.00019  -0.00016  -0.00025  -0.00061
  23        3PX         0.00003   0.00000  -0.00002   0.00003   0.00002
  24        3PY         0.00001  -0.00001   0.00002   0.00002  -0.00003
  25        3PZ         0.00001  -0.00000  -0.00001   0.00001   0.00000
  26 4   C  1S         -0.00002  -0.00003  -0.00001  -0.00003   0.99325
  27        2S         -0.00012  -0.00019  -0.00008  -0.00016   0.04989
  28        2PX        -0.00001  -0.00004   0.00004  -0.00001  -0.00014
  29        2PY         0.00000  -0.00002   0.00003  -0.00001   0.00060
  30        2PZ        -0.00004  -0.00000   0.00005  -0.00002   0.00057
  31        3S          0.00069   0.00128   0.00020   0.00097  -0.02035
  32        3PX        -0.00021   0.00072  -0.00007   0.00050   0.00015
  33        3PY        -0.00023   0.00021  -0.00080  -0.00020  -0.00171
  34        3PZ         0.00010   0.00049  -0.00027  -0.00048  -0.00012
  35        4XX         0.00001  -0.00003   0.00003   0.00001  -0.00862
  36        4YY         0.00002  -0.00001   0.00001  -0.00005  -0.00859
  37        4ZZ        -0.00001   0.00001  -0.00003  -0.00007  -0.00842
  38        4XY         0.00002  -0.00002  -0.00003  -0.00002  -0.00002
  39        4XZ        -0.00000  -0.00001  -0.00001  -0.00002   0.00002
  40        4YZ        -0.00001   0.00003   0.00002  -0.00003   0.00001
  41 5   O  1S         -0.00004   0.00001   0.00000  -0.00005  -0.00014
  42        2S         -0.00011   0.00001  -0.00000  -0.00018  -0.00040
  43        2PX         0.00003  -0.00004   0.00002  -0.00004   0.00000
  44        2PY         0.00003  -0.00001  -0.00001   0.00001   0.00004
  45        2PZ        -0.00000  -0.00004  -0.00001   0.00004   0.00012
  46        3S          0.00037  -0.00017   0.00019   0.00072   0.00395
  47        3PX        -0.00015   0.00019  -0.00009   0.00011  -0.00006
  48        3PY        -0.00011   0.00006   0.00004  -0.00009  -0.00017
  49        3PZ        -0.00001   0.00036  -0.00005  -0.00026  -0.00090
  50        4XX        -0.00009   0.00004   0.00001  -0.00011  -0.00016
  51        4YY        -0.00008  -0.00000   0.00000  -0.00015  -0.00035
  52        4ZZ        -0.00010  -0.00007   0.00004  -0.00012  -0.00069
  53        4XY         0.00004  -0.00001   0.00000  -0.00001   0.00001
  54        4XZ        -0.00001   0.00000   0.00000  -0.00001   0.00000
  55        4YZ        -0.00000  -0.00002  -0.00001   0.00003  -0.00031
  56 6   H  1S         -0.00002  -0.00006   0.00004  -0.00006   0.00005
  57        2S          0.00009  -0.00036  -0.00022   0.00027  -0.00028
  58        3PX        -0.00001  -0.00010  -0.00000  -0.00001  -0.00003
  59        3PY         0.00002   0.00008  -0.00000   0.00002  -0.00008
  60        3PZ        -0.00001   0.00006   0.00001  -0.00002  -0.00012
  61 7   P  1S         -0.00000   0.00001   0.00001   0.00001   0.00000
  62        2S         -0.00002  -0.00006  -0.00008   0.00002  -0.00008
  63        2PX         0.00000   0.00000   0.00001  -0.00004   0.00002
  64        2PY         0.00000   0.00001  -0.00000  -0.00005  -0.00003
  65        2PZ        -0.00000  -0.00001   0.00001   0.00002   0.00000
  66        3S         -0.00008   0.00068   0.00065   0.00026  -0.00006
  67        3PX        -0.00000  -0.00002  -0.00008   0.00004  -0.00042
  68        3PY         0.00000  -0.00001  -0.00002   0.00016   0.00035
  69        3PZ         0.00002   0.00016  -0.00019  -0.00003  -0.00000
  70        4S          0.00015  -0.00331  -0.00274  -0.00323   0.00415
  71        4PX        -0.00011  -0.00003   0.00050  -0.00075  -0.00100
  72        4PY        -0.00005  -0.00013   0.00117  -0.00164   0.00183
  73        4PZ        -0.00014  -0.00196   0.00178   0.00024   0.00055
  74        5XX         0.00002  -0.00018  -0.00023   0.00012   0.00002
  75        5YY        -0.00003  -0.00028  -0.00011   0.00013   0.00004
  76        5ZZ        -0.00003  -0.00003  -0.00018  -0.00003   0.00002
  77        5XY         0.00003   0.00001   0.00001   0.00012  -0.00006
  78        5XZ        -0.00003   0.00008   0.00002  -0.00009   0.00002
  79        5YZ        -0.00001  -0.00011   0.00014  -0.00008   0.00006
  80 8   P  1S          0.00001  -0.00000  -0.00000   0.00000   0.00000
  81        2S         -0.00009  -0.00003  -0.00001   0.00000  -0.00010
  82        2PX        -0.00001   0.00000  -0.00000  -0.00000  -0.00003
  83        2PY         0.00001  -0.00000   0.00000   0.00000  -0.00002
  84        2PZ        -0.00002   0.00001   0.00001  -0.00001  -0.00001
  85        3S          0.00059  -0.00008  -0.00004   0.00002  -0.00012
  86        3PX         0.00009  -0.00004  -0.00001   0.00001   0.00049
  87        3PY        -0.00012   0.00002   0.00001   0.00000   0.00026
  88        3PZ         0.00017  -0.00007  -0.00003   0.00003   0.00007
  89        4S         -0.00246   0.00073  -0.00047  -0.00012   0.00456
  90        4PX        -0.00058   0.00036  -0.00009  -0.00025   0.00095
  91        4PY         0.00147  -0.00001  -0.00016   0.00030   0.00194
  92        4PZ        -0.00199   0.00017   0.00031  -0.00011   0.00012
  93        5XX        -0.00022  -0.00002   0.00001  -0.00002  -0.00005
  94        5YY        -0.00016  -0.00003  -0.00000   0.00001  -0.00003
  95        5ZZ        -0.00016  -0.00003  -0.00004   0.00000   0.00006
  96        5XY        -0.00003   0.00002  -0.00003  -0.00001   0.00009
  97        5XZ         0.00000  -0.00003  -0.00003   0.00002   0.00004
  98        5YZ        -0.00012  -0.00002   0.00001   0.00003   0.00002
  99 9   O  1S         -0.00000   0.99273   0.00134  -0.00003   0.00005
 100        2S         -0.00005   0.02566   0.00004  -0.00015   0.00021
 101        2PX         0.00001  -0.00022   0.00002  -0.00003   0.00003
 102        2PY         0.00001   0.00008   0.00005  -0.00003   0.00003
 103        2PZ        -0.00000  -0.00059  -0.00000  -0.00001   0.00002
 104        3S          0.00020   0.01247  -0.00006   0.00095  -0.00134
 105        3PX        -0.00003  -0.00023  -0.00012   0.00011   0.00002
 106        3PY        -0.00001   0.00027  -0.00026   0.00027  -0.00029
 107        3PZ        -0.00003  -0.00045  -0.00022  -0.00022   0.00016
 108        4XX        -0.00002  -0.00815   0.00002  -0.00010   0.00017
 109        4YY        -0.00004  -0.00813  -0.00003  -0.00009   0.00010
 110        4ZZ        -0.00003  -0.00815   0.00007  -0.00009   0.00014
 111        4XY         0.00001  -0.00001  -0.00000  -0.00004  -0.00009
 112        4XZ         0.00000  -0.00000   0.00002   0.00002   0.00001
 113        4YZ        -0.00001  -0.00000   0.00001   0.00000   0.00004
 114 10  O  1S          0.99264  -0.00001  -0.00003  -0.00002   0.00003
 115        2S          0.02562   0.00002  -0.00005  -0.00006   0.00016
 116        2PX        -0.00007  -0.00003  -0.00004   0.00001   0.00002
 117        2PY         0.00051   0.00000   0.00001  -0.00000   0.00002
 118        2PZ        -0.00050  -0.00000   0.00003   0.00001   0.00003
 119        3S          0.01258  -0.00016   0.00017   0.00031  -0.00084
 120        3PX         0.00009   0.00009   0.00012  -0.00000  -0.00017
 121        3PY         0.00043  -0.00003   0.00000   0.00003  -0.00037
 122        3PZ        -0.00029   0.00002  -0.00012  -0.00005  -0.00000
 123        4XX        -0.00814   0.00002  -0.00004  -0.00005   0.00010
 124        4YY        -0.00813  -0.00001  -0.00005  -0.00004   0.00005
 125        4ZZ        -0.00814  -0.00002  -0.00004  -0.00003   0.00010
 126        4XY         0.00000   0.00001  -0.00001   0.00001   0.00004
 127        4XZ        -0.00001   0.00000  -0.00002   0.00000   0.00004
 128        4YZ         0.00000  -0.00001  -0.00002   0.00000   0.00000
 129 11  O  1S         -0.00004   0.00001  -0.00001  -0.00000   0.00002
 130        2S         -0.00010   0.00002  -0.00003   0.00001   0.00012
 131        2PX         0.00002   0.00001  -0.00001  -0.00001  -0.00004
 132        2PY         0.00000  -0.00000  -0.00000  -0.00001  -0.00004
 133        2PZ        -0.00004   0.00001   0.00001  -0.00000   0.00003
 134        3S          0.00059  -0.00012   0.00014  -0.00006  -0.00091
 135        3PX         0.00003  -0.00006   0.00007   0.00002  -0.00023
 136        3PY        -0.00017   0.00002   0.00000   0.00003   0.00027
 137        3PZ         0.00024  -0.00004  -0.00006   0.00002  -0.00010
 138        4XX        -0.00006   0.00002  -0.00002   0.00001   0.00011
 139        4YY        -0.00009   0.00002  -0.00003  -0.00000   0.00003
 140        4ZZ        -0.00010   0.00003  -0.00002  -0.00001  -0.00002
 141        4XY         0.00001   0.00000   0.00001   0.00000   0.00004
 142        4XZ         0.00001   0.00000  -0.00001   0.00000   0.00000
 143        4YZ         0.00003   0.00000   0.00000  -0.00000   0.00001
 144 12  O  1S          0.00000  -0.00004  -0.00004   0.99284   0.00008
 145        2S         -0.00001  -0.00012  -0.00008   0.02565   0.00032
 146        2PX         0.00000  -0.00001  -0.00001  -0.00032   0.00001
 147        2PY        -0.00000  -0.00002   0.00002  -0.00033   0.00000
 148        2PZ        -0.00001  -0.00004   0.00006   0.00013   0.00001
 149        3S          0.00004   0.00074   0.00048   0.01157  -0.00176
 150        3PX         0.00000  -0.00008  -0.00011  -0.00048   0.00030
 151        3PY         0.00002  -0.00004  -0.00022  -0.00028   0.00010
 152        3PZ         0.00004   0.00031  -0.00028   0.00025  -0.00020
 153        4XX        -0.00001  -0.00006  -0.00002  -0.00792   0.00023
 154        4YY        -0.00002  -0.00008  -0.00005  -0.00794   0.00023
 155        4ZZ        -0.00001  -0.00012  -0.00006  -0.00791   0.00015
 156        4XY        -0.00001  -0.00001   0.00000  -0.00002  -0.00004
 157        4XZ        -0.00000  -0.00002   0.00002  -0.00000  -0.00001
 158        4YZ        -0.00000   0.00002  -0.00002   0.00001   0.00001
 159 13  O  1S          0.00001  -0.00134   0.99274   0.00001   0.00002
 160        2S         -0.00003  -0.00007   0.02566  -0.00007   0.00009
 161        2PX         0.00003  -0.00000   0.00003  -0.00001  -0.00005
 162        2PY         0.00001   0.00004   0.00043  -0.00002   0.00002
 163        2PZ        -0.00002  -0.00005   0.00050   0.00004  -0.00002
 164        3S          0.00010   0.00016   0.01244   0.00047  -0.00044
 165        3PX        -0.00010   0.00005  -0.00005   0.00010   0.00029
 166        3PY        -0.00002  -0.00004   0.00048   0.00030  -0.00032
 167        3PZ         0.00009   0.00041   0.00027  -0.00004  -0.00005
 168        4XX        -0.00003   0.00001  -0.00813  -0.00005   0.00007
 169        4YY        -0.00005   0.00000  -0.00811  -0.00003   0.00001
 170        4ZZ        -0.00003   0.00005  -0.00814  -0.00004   0.00004
 171        4XY         0.00001   0.00001  -0.00000  -0.00004  -0.00000
 172        4XZ        -0.00002  -0.00000  -0.00000   0.00002   0.00004
[...]
 176        2PX         0.98550
 177        2PY         0.98885
 178        2PZ         0.90273
 179        3S          1.00803
 180        3PX         0.73191
 181        3PY         0.72629
 182        3PZ         0.52992
 183        4XX        -0.01200
 184        4YY        -0.01174
 185        4ZZ         0.00835
 186        4XY         0.00058
 187        4XZ         0.00516
 188        4YZ         0.00495
 189 15  H  1S          0.53376
 190        2S          0.39559
 191        3PX         0.00543
 192        3PY         0.00379
 193        3PZ         0.00265
 194 16  H  1S          0.48747
 195        2S          0.16785
 196        3PX         0.01087
 197        3PY         0.01065
 198        3PZ         0.01842
          Condensed to atoms (all electrons):
               1          2          3          4          5          6
     1  C    5.060900   0.354130   0.344701   0.314082  -0.051027   0.008169
     2  H    0.354130   0.646685  -0.027701  -0.029260   0.003880  -0.000388
     3  H    0.344701  -0.027701   0.653293  -0.032181   0.001766   0.000115
     4  C    0.314082  -0.029260  -0.032181   5.800209   0.115391  -0.038308
     5  O   -0.051027   0.003880   0.001766   0.115391   8.372172   0.237155
     6  H    0.008169  -0.000388   0.000115  -0.038308   0.237155   0.422968
     7  P   -0.037967   0.002968   0.001079   0.132626  -0.000349  -0.027142
     8  P   -0.017023   0.005329  -0.000384   0.145286   0.017254   0.000331
     9  O    0.000779   0.000004  -0.000022  -0.039556  -0.042793   0.101279
    10  O    0.000979   0.000003  -0.000023  -0.047963  -0.001355   0.000623
    11  O   -0.006398  -0.000547   0.000015  -0.033772  -0.001146  -0.000119
    12  O   -0.003676  -0.001150   0.018212  -0.050795  -0.000502  -0.000836
    13  O   -0.001678   0.000299   0.000044  -0.048231   0.000368   0.000160
    14  O   -0.001767   0.006292   0.000073  -0.044851   0.000389  -0.000012
    15  H    0.339260  -0.038156  -0.035779  -0.031969  -0.001630  -0.000491
    16  H    0.000314  -0.000075   0.000023   0.001123   0.000044  -0.000003
               7          8          9         10         11         12
     1  C   -0.037967  -0.017023   0.000779   0.000979  -0.006398  -0.003676
     2  H    0.002968   0.005329   0.000004   0.000003  -0.000547  -0.001150
     3  H    0.001079  -0.000384  -0.000022  -0.000023   0.000015   0.018212
     4  C    0.132626   0.145286  -0.039556  -0.047963  -0.033772  -0.050795
     5  O   -0.000349   0.017254  -0.042793  -0.001355  -0.001146  -0.000502
     6  H   -0.027142   0.000331   0.101279   0.000623  -0.000119  -0.000836
     7  P   12.776737  -0.004074   0.391650   0.008819  -0.000714   0.484168
     8  P   -0.004074  12.667859  -0.002734   0.541924   0.179205  -0.002136
     9  O    0.391650  -0.002734   8.482718  -0.000308  -0.000002  -0.046139
    10  O    0.008819   0.541924  -0.000308   8.301822  -0.039789   0.000000
    11  O   -0.000714   0.179205  -0.000002  -0.039789   8.319629  -0.000000
    12  O    0.484168  -0.002136  -0.046139   0.000000  -0.000000   8.419529
    13  O    0.470516   0.027988  -0.042934  -0.001395  -0.000001  -0.047953
    14  O   -0.002779   0.515739   0.000006  -0.034783  -0.043010  -0.000000
    15  H    0.000098  -0.004484  -0.000066  -0.000012   0.010782   0.000449
    16  H    0.000101  -0.007560  -0.000000   0.001226   0.283462   0.000000
              13         14         15         16
     1  C   -0.001678  -0.001767   0.339260   0.000314
     2  H    0.000299   0.006292  -0.038156  -0.000075
     3  H    0.000044   0.000073  -0.035779   0.000023
     4  C   -0.048231  -0.044851  -0.031969   0.001123
     5  O    0.000368   0.000389  -0.001630   0.000044
     6  H    0.000160  -0.000012  -0.000491  -0.000003
     7  P    0.470516  -0.002779   0.000098   0.000101
     8  P    0.027988   0.515739  -0.004484  -0.007560
     9  O   -0.042934   0.000006  -0.000066  -0.000000
    10  O   -0.001395  -0.034783  -0.000012   0.001226
    11  O   -0.000001  -0.043010   0.010782   0.283462
    12  O   -0.047953  -0.000000   0.000449   0.000000
    13  O    8.413834  -0.001147  -0.000054   0.000002
    14  O   -0.001147   8.351399  -0.000585   0.007789
    15  H   -0.000054  -0.000585   0.703921  -0.000064
    16  H    0.000002   0.007789  -0.000064   0.408883
 Mulliken charges:
               1
     1  C   -0.303777
     2  H    0.077685
     3  H    0.076769
     4  C   -0.111832
     5  O   -0.649618
     6  H    0.296498
     7  P    0.804264
     8  P    0.937480
     9  O   -0.801882
    10  O   -0.729767
    11  O   -0.667594
    12  O   -0.769171
    13  O   -0.769818
    14  O   -0.752754
    15  H    0.058781
    16  H    0.304735
 Sum of Mulliken charges =  -3.00000
 Mulliken charges with hydrogens summed into heavy atoms:
               1
     1  C   -0.090541
     4  C   -0.111832
     5  O   -0.353119
     7  P    0.804264
     8  P    0.937480
     9  O   -0.801882
    10  O   -0.729767
    11  O   -0.362859
    12  O   -0.769171
    13  O   -0.769818
    14  O   -0.752754
 Electronic spatial extent (au):  <R**2>=           2017.6112
 Charge=             -3.0000 electrons
 Dipole moment (field-independent basis, Debye):
    X=             -7.2192    Y=              8.0198    Z=             -0.6661  Tot=             10.8110
 Quadrupole moment (field-independent basis, Debye-Ang):
   XX=           -140.1983   YY=           -106.0913   ZZ=           -106.8419
   XY=             -6.3777   XZ=              5.1504   YZ=             -3.8587
 Traceless Quadrupole moment (field-independent basis, Debye-Ang):
   XX=            -22.4878   YY=             11.6192   ZZ=             10.8686
   XY=             -6.3777   XZ=              5.1504   YZ=             -3.8587
 Octapole moment (field-independent basis, Debye-Ang**2):
  XXX=            -76.0748  YYY=             18.4365  ZZZ=              7.8801  XYY=            -10.3813
  XXY=             19.8385  XXZ=              0.8139  XZZ=             -3.9646  YZZ=             12.0652
  YYZ=             -0.9134  XYZ=              8.6350
 Hexadecapole moment (field-independent basis, Debye-Ang**3):
 XXXX=          -1765.7871 YYYY=           -644.1533 ZZZZ=           -503.6203 XXXY=            -71.5107
 XXXZ=             54.7839 YYYX=             -7.1410 YYYZ=             -0.3064 ZZZX=            -19.7884
 ZZZY=             -1.2366 XXYY=           -396.9108 XXZZ=           -413.9501 YYZZ=           -208.7512
 XXYZ=              0.3765 YYXZ=             25.6414 ZZXY=             -3.9596
 N-N= 9.535007039451D+02 E-N=-5.013379649805D+03  KE= 1.281120009864D+03
 Orbital energies and kinetic energies (alpha):
                                 1                 2
   1         O               -77.119378        106.045679
   2         O               -77.086038        106.045927
   3         O               -19.106475         29.027632
   4         O               -19.080936         29.028109
   5         O               -19.034998         29.028345
   6         O               -19.034743         29.028697
   7         O               -19.013483         29.029144
   8         O               -19.006708         29.029762
   9         O               -19.004780         29.029847
  10         O               -10.169395         15.891366
  11         O               -10.139214         15.883274
  12         O                -6.567978         15.695057
  13         O                -6.533155         15.696362
  14         O                -4.733285         14.711262
  15         O                -4.730128         14.704349
  16         O                -4.729332         14.712246
  17         O                -4.696907         14.715239
  18         O                -4.696193         14.707794
  19         O                -4.695837         14.707885
  20         O                -0.976204          2.508018
  21         O                -0.951902          2.458040
  22         O                -0.896567          2.661649
  23         O                -0.895489          2.726348
  24         O                -0.857253          2.886784
  25         O                -0.825100          2.858499
  26         O                -0.820613          2.873614
  27         O                -0.697071          1.513957
  28         O                -0.565384          1.777750
  29         O                -0.498731          2.046459
  30         O                -0.455386          1.755476
  31         O                -0.430635          1.804765
  32         O                -0.388418          2.250853
  33         O                -0.385804          1.929556
  34         O                -0.366429          1.612818
  35         O                -0.356502          1.708034
  36         O                -0.344442          1.709198
  37         O                -0.330324          1.702622
  38         O                -0.309935          2.379770
  39         O                -0.303695          2.262362
  40         O                -0.300862          2.279114
  41         O                -0.284748          1.987093
  42         O                -0.274488          2.166929
  43         O                -0.251085          2.104511
  44         O                -0.241013          2.156902
  45         O                -0.224565          2.047223
  46         O                -0.220687          2.063392
  47         O                -0.215243          2.196969
  48         O                -0.205219          2.206357
  49         O                -0.202256          2.171780
  50         O                -0.190744          2.251490
  51         O                -0.183517          2.218101
  52         O                -0.171548          2.165284
  53         O                -0.155149          2.400311
  54         V                 0.107975          1.416845
  55         V                 0.147494          1.984135
  56         V                 0.156750          1.424137
  57         V                 0.159826          1.713231
  58         V                 0.188631          1.371202
  59         V                 0.196450          1.477149
  60         V                 0.208560          2.513757
  61         V                 0.219213          1.761171
  62         V                 0.231069          2.003241
  63         V                 0.245848          2.030119
  64         V                 0.262823          2.014092
  65         V                 0.267200          1.754163
  66         V                 0.293550          1.701382
  67         V                 0.302108          2.314736
  68         V                 0.324449          1.932002
  69         V                 0.384861          2.497404
  70         V                 0.401926          3.065203
  71         V                 0.425650          2.517676
  72         V                 0.457841          2.370358
  73         V                 0.474492          2.647034
  74         V                 0.479866          2.714458
  75         V                 0.502975          2.277668
  76         V                 0.520231          2.303951
  77         V                 0.602603          2.289850
  78         V                 0.629998          2.044580
  79         V                 0.631781          2.601549
  80         V                 0.694607          2.571435
  81         V                 0.708485          2.498998
  82         V                 0.715134          2.437604
  83         V                 0.764623          2.364176
  84         V                 0.788468          2.474038
  85         V                 0.806032          2.658138
  86         V                 0.848087          2.517498
  87         V                 0.849880          2.544181
  88         V                 0.872944          2.608063
  89         V                 0.874005          2.693390
  90         V                 0.891619          2.473588
  91         V                 0.904703          2.597434
  92         V                 0.915788          2.583075
  93         V                 0.944746          2.690588
  94         V                 0.950371          2.624260
  95         V                 0.974646          2.574571
  96         V                 0.984141          2.904101
  97         V                 0.994386          2.611116
  98         V                 1.019350          3.064410
  99         V                 1.045848          3.119654
 100         V                 1.061896          3.171264
 101         V                 1.064123          3.097007
 102         V                 1.081470          3.226859
 103         V                 1.089761          2.986584
 104         V                 1.095669          3.313216
 105         V                 1.116253          3.222783
 106         V                 1.124532          3.314570
 107         V                 1.132019          3.160531
 108         V                 1.132915          3.356430
 109         V                 1.144758          3.093155
 110         V                 1.170253          3.340658
 111         V                 1.189061          3.243668
 112         V                 1.215278          3.374495
 113         V                 1.235011          3.968972
 114         V                 1.243082          3.795297
 115         V                 1.270199          3.642625
 116         V                 1.277070          3.752317
 117         V                 1.287106          3.813394
 118         V                 1.308584          3.507017
 119         V                 1.381451          3.102688
 120         V                 1.398516          2.939601
 121         V                 1.434854          2.768508
 122         V                 1.480271          2.801974
 123         V                 1.501706          2.767993
 124         V                 1.505793          2.741260
 125         V                 1.574911          2.811167
 126         V                 1.598267          2.707642
 127         V                 1.624958          2.695392
 128         V                 1.673227          2.798881
 129         V                 1.680099          2.779151
 130         V                 1.715714          2.800855
 131         V                 1.742334          2.856164
 132         V                 1.803584          2.868176
 133         V                 1.827921          2.913467
 134         V                 1.854964          2.910768
 135         V                 1.873921          2.906654
 136         V                 1.884189          2.951769
 137         V                 1.893139          2.914423
 138         V                 1.895084          2.861413
 139         V                 1.905748          2.909045
 140         V                 1.912020          2.902473
 141         V                 1.924462          2.929211
 142         V                 1.933587          2.920443
 143         V                 1.938521          2.912433
 144         V                 1.952249          2.990584
 145         V                 1.956435          3.080608
 146         V                 1.974519          3.149724
 147         V                 1.991650          3.242785
 148         V                 2.053309          3.281442
 149         V                 2.062301          3.225957
 150         V                 2.068565          3.410974
 151         V                 2.085045          3.018690
 152         V                 2.096583          3.496247
 153         V                 2.110078          3.280741
 154         V                 2.125493          3.259035
 155         V                 2.158389          3.305648
 156         V                 2.185306          3.366296
 157         V                 2.201028          3.495711
 158         V                 2.210182          3.455321
 159         V                 2.262098          3.412726
 160         V                 2.308093          3.573847
 161         V                 2.356284          3.521973
 162         V                 2.367035          3.575643
 163         V                 2.383007          3.590644
 164         V                 2.434837          3.704844
 165         V                 2.483898          3.756215
 166         V                 2.523117          3.776073
 167         V                 2.544668          3.878767
 168         V                 2.548067          4.239349
 169         V                 2.589025          3.739783
 170         V                 2.682568          3.600115
 171         V                 2.715528          4.029610
 172         V                 2.735943          4.056201
 173         V                 2.750251          3.830566
 174         V                 2.793028          4.101559
 175         V                 2.834517          4.384238
 176         V                 2.859189          4.302726
 177         V                 2.884217          4.794233
 178         V                 2.896153          4.644282
 179         V                 2.907498          4.660113
 180         V                 2.917945          4.070903
 181         V                 3.025064          4.396912
 182         V                 3.060987          4.480680
 183         V                 3.251799          4.942760
 184         V                 3.426964          6.446081
 185         V                 3.476700          5.177177
 186         V                 3.485873          5.381104
 187         V                 3.543000          7.114708
 188         V                 3.591953          9.283232
 189         V                 3.661621          9.901467
 190         V                 3.842388         10.280522
 191         V                 3.850419         10.063737
 192         V                 3.926415          9.736503
 193         V                 3.973085         10.441907
 194         V                 4.077483         10.803319
 195         V                 4.121564         10.530225
 196         V                 4.245362         10.798281
 197         V                 4.443361         10.569415
 198         V                 4.627159         10.327930
 Total kinetic energy from orbitals= 1.281120009864D+03
 No NMR shielding tensors so no spin-rotation constants.
 Leave Link  601 at Tue Feb  9 16:21:45 2021, MaxMem=   536870912 cpu:               1.9 elap:               0.2
 (Enter /usr/local//g16/l9999.exe)

 Test job not archived.
 1\1\GINC-BATAGIN2\FOpt\RB3LYP\6-31G(d,p)\C2H5O7P2(3-)\ORISON\09-Feb-20
 21\0\\#P B3LYP/6-31G(d,p) # Opt SCRF=(Solvent=Water) # Gfinput IOP(6/7
 =3) Pop=full Density Test # Units(Ang,Deg)\\eti-2dp-opt-g09.log\\-3,1\
 C,-0.0696412289,1.8809848281,-0.7608288403\H,-0.146208303,1.5968083237
 ,-1.814706131\H,0.8429331074,2.4676939506,-0.6319980732\C,-0.012353657
 9,0.6438768276,0.1379832898\O,-0.0040271903,1.092792335,1.5180589207\H
 ,0.6983990242,0.485543061,1.8783054865\P,1.6646376235,-0.2895427249,-0
 .0569408766\P,-1.5475681922,-0.3805044504,-0.1105976602\O,1.9359027067
 ,-0.615246144,1.4505388756\O,-1.618221945,-1.5385119514,0.8678694906\O
 ,-2.7522601066,0.7044617398,0.3949198137\O,2.6535941184,0.7417067939,-
 0.6394603947\O,1.4779871378,-1.538685767,-0.9379377709\O,-1.8384583612
 ,-0.6154065987,-1.5883784153\H,-0.9404704765,2.5027731009,-0.516820563
 7\H,-3.1184232563,1.0767046758,-0.418787151\\Version=EM64L-G16RevA.03\
 State=1-A\HF=-1289.0280438\RMSD=9.324e-09\RMSF=2.318e-05\Dipole=-2.814
 6739,3.1819712,-0.2091488\Quadrupole=-16.9503031,8.9268264,8.0234767,-
 4.6431872,2.99499,-2.9804918\PG=C01 [X(C2H5O7P2)]\\@


 HO!  SUCH BUGS AND GOBLINS IN MY LIFE!

                            -- HAMLET, ACT 5, SCENE 2
 Job cpu time:       0 days  1 hours 16 minutes 40.6 seconds.
 Elapsed time:       0 days  0 hours  9 minutes 38.0 seconds.
 File lengths (MBytes):  RWF=    115 Int=      0 D2E=      0 Chk=      7 Scr=      1
 Normal termination of Gaussian 16 at Tue Feb  9 16:21:45 2021.
