 Entering Gaussian System, Link 0=g16
 Input=eti-3dp_anion_scf_g09.com
 Output=eti-3dp_anion_scf_g09.log
 Initial command:
 /usr/local//g16/l1.exe "/home/orison/scrgauss/Gau-23728.inp" -scrdir="/home/orison/scrgauss/"
 Entering Link 1 = /usr/local//g16/l1.exe PID=     23730.
  
 Copyright (c) 1988,1990,1992,1993,1995,1998,2003,2009,2016,
            Gaussian, Inc.  All Rights Reserved.
  
 This is part of the Gaussian(R) 16 program.  It is based on
 the Gaussian(R) 09 system (copyright 2009, Gaussian, Inc.),
 the Gaussian(R) 03 system (copyright 2003, Gaussian, Inc.),
 the Gaussian(R) 98 system (copyright 1998, Gaussian, Inc.),
 the Gaussian(R) 94 system (copyright 1995, Gaussian, Inc.),
 the Gaussian 92(TM) system (copyright 1992, Gaussian, Inc.),
 the Gaussian 90(TM) system (copyright 1990, Gaussian, Inc.),
 the Gaussian 88(TM) system (copyright 1988, Gaussian, Inc.),
 the Gaussian 86(TM) system (copyright 1986, Carnegie Mellon
 University), and the Gaussian 82(TM) system (copyright 1983,
 Carnegie Mellon University). Gaussian is a federally registered
 trademark of Gaussian, Inc.
  
 This software contains proprietary and confidential information,
 including trade secrets, belonging to Gaussian, Inc.
  
 This software is provided under written license and may be
 used, copied, transmitted, or stored only in accord with that
 written license.
  
 The following legend is applicable only to US Government
 contracts under FAR:
  
                    RESTRICTED RIGHTS LEGEND
  
 Use, reproduction and disclosure by the US Government is
 subject to restrictions as set forth in subparagraphs (a)
 and (c) of the Commercial Computer Software - Restricted
 Rights clause in FAR 52.227-19.
  
 Gaussian, Inc.
 340 Quinnipiac St., Bldg. 40, Wallingford CT 06492
  
  
 ---------------------------------------------------------------
 Warning -- This program may not be used in any manner that
 competes with the business of Gaussian, Inc. or will provide
 assistance to any competitor of Gaussian, Inc.  The licensee
 of this program is prohibited from giving any competitor of
 Gaussian, Inc. access to this program.  By using this program,
 the user acknowledges that Gaussian, Inc. is engaged in the
 business of creating and licensing software in the field of
 computational chemistry and represents and warrants to the
 licensee that it is not a competitor of Gaussian, Inc. and that
 it will not use this program in any manner prohibited above.
 ---------------------------------------------------------------
  

 Cite this work as:
 Gaussian 16, Revision A.03,
 M. J. Frisch, G. W. Trucks, H. B. Schlegel, G. E. Scuseria, 
 M. A. Robb, J. R. Cheeseman, G. Scalmani, V. Barone, 
 G. A. Petersson, H. Nakatsuji, X. Li, M. Caricato, A. V. Marenich, 
 J. Bloino, B. G. Janesko, R. Gomperts, B. Mennucci, H. P. Hratchian, 
 J. V. Ortiz, A. F. Izmaylov, J. L. Sonnenberg, D. Williams-Young, 
 F. Ding, F. Lipparini, F. Egidi, J. Goings, B. Peng, A. Petrone, 
 T. Henderson, D. Ranasinghe, V. G. Zakrzewski, J. Gao, N. Rega, 
 G. Zheng, W. Liang, M. Hada, M. Ehara, K. Toyota, R. Fukuda, 
 J. Hasegawa, M. Ishida, T. Nakajima, Y. Honda, O. Kitao, H. Nakai, 
 T. Vreven, K. Throssell, J. A. Montgomery, Jr., J. E. Peralta, 
 F. Ogliaro, M. J. Bearpark, J. J. Heyd, E. N. Brothers, K. N. Kudin, 
 V. N. Staroverov, T. A. Keith, R. Kobayashi, J. Normand, 
 K. Raghavachari, A. P. Rendell, J. C. Burant, S. S. Iyengar, 
 J. Tomasi, M. Cossi, J. M. Millam, M. Klene, C. Adamo, R. Cammi, 
 J. W. Ochterski, R. L. Martin, K. Morokuma, O. Farkas, 
 J. B. Foresman, and D. J. Fox, Gaussian, Inc., Wallingford CT, 2016.
 
 ******************************************
 Gaussian 16:  EM64L-G16RevA.03 25-Dec-2016
                 9-Feb-2021 
 ******************************************
 %nproc=8
 Will use up to    8 processors via shared memory.
 %Mem=4GB
 ----------------------------------------------------------------------
 #t B3LYP/6-31G(d,p) scrf=(solvent=water) # Gfinput IOP(6/7=3) Pop=hirs
 hfeld Density Test # Units(Ang,Deg)
 ----------------------------------------------------------------------
 -------------------
 eti-3dp-opt-g09.log
 -------------------
 Symbolic Z-matrix:
 Charge = -4 Multiplicity = 2
 C                    -0.07675   1.85793  -0.84048 
 H                    -0.17799   1.53203  -1.88011 
 H                     0.83484   2.45444  -0.75806 
 C                     0.01146   0.65753   0.10442 
 O                     0.05161   1.1605    1.46516 
 H                     0.76695   0.57192   1.83095 
 P                     1.6892   -0.2733   -0.09639 
 P                    -1.52266  -0.38455  -0.06458 
 O                     2.00059  -0.53782   1.41531 
 O                    -1.56086  -1.5035    0.96005 
 O                    -2.72143   0.71262   0.42851 
 O                     2.65623   0.73981  -0.74393 
 O                     1.48873  -1.55721  -0.92266 
 O                    -1.84917  -0.67913  -1.52412 
 H                    -0.94528   2.48389  -0.59895 
 H                    -3.11049   1.05044  -0.38959 
 
                    Distance matrix (angstroms):
                    1          2          3          4          5
     1  C    0.000000
     2  H    1.094208   0.000000
     3  H    1.092526   1.770780   0.000000
     4  C    1.530221   2.176925   2.156551   0.000000
     5  O    2.412231   3.373660   2.688947   1.451277   0.000000
     6  H    3.082562   3.947998   3.201791   1.886531   0.995962
     7  P    2.866076   3.150757   2.933991   1.929140   2.678791
     8  P    2.778739   2.962696   3.754808   1.862261   2.684327
     9  O    3.891471   4.459852   3.877645   2.665320   2.585594
    10  O    4.091907   4.381014   4.935238   2.806126   3.154694
    11  O    3.149032   3.531324   4.133877   2.752591   2.994159
    12  O    2.954436   3.154571   2.501523   2.778718   3.441091
    13  O    3.757747   3.638416   4.067923   2.853470   3.892678
    14  O    3.169465   2.794423   4.196429   2.810827   3.991616
    15  H    1.097500   1.770916   1.787459   2.178456   2.646828
    16  H    3.171580   3.324626   4.203881   3.185121   3.667572
                    6          7          8          9         10
     6  H    0.000000
     7  P    2.297734   0.000000
     8  P    3.122528   3.213944   0.000000
     9  O    1.710598   1.565941   3.824507   0.000000
    10  O    3.237983   3.632127   1.517687   3.718027   0.000000
    11  O    3.762370   4.549859   1.698225   4.983457   2.557469
    12  O    3.198058   1.542999   4.380505   2.593168   5.071473
    13  O    3.554790   1.539914   3.343636   2.601396   3.584338
    14  O    4.434603   3.837079   1.524350   4.845706   2.633213
    15  H    3.534371   3.846446   2.974368   4.676123   4.325355
    16  H    4.493809   4.987512   2.164724   5.648307   3.278032
                   11         12         13         14         15
    11  O    0.000000
    12  O    5.504051   0.000000
    13  O    4.970235   2.582886   0.000000
    14  O    2.551582   4.787558   3.503478   0.000000
    15  H    2.710679   4.004211   4.728603   3.417258   0.000000
    16  H    0.966839   5.785940   5.313834   2.422705   2.605138
                   16
    16  H    0.000000
 Framework group  C1[X(C2H5O7P2)]
 Deg. of freedom    42
                         Standard orientation:                         
 ---------------------------------------------------------------------
 Center     Atomic      Atomic             Coordinates (Angstroms)
 Number     Number       Type             X           Y           Z
 ---------------------------------------------------------------------
      1          6           0       -0.076754    1.857931   -0.840479
      2          1           0       -0.177993    1.532031   -1.880109
      3          1           0        0.834835    2.454443   -0.758059
      4          6           0        0.011459    0.657531    0.104421
      5          8           0        0.051608    1.160501    1.465161
      6          1           0        0.766949    0.571923    1.830951
      7         15           0        1.689201   -0.273295   -0.096389
      8         15           0       -1.522659   -0.384552   -0.064579
      9          8           0        2.000591   -0.537815    1.415311
     10          8           0       -1.560857   -1.503502    0.960051
     11          8           0       -2.721431    0.712615    0.428511
     12          8           0        2.656229    0.739817   -0.743929
     13          8           0        1.488733   -1.557206   -0.922659
     14          8           0       -1.849168   -0.679133   -1.524119
     15          1           0       -0.945285    2.483889   -0.598949
     16          1           0       -3.110492    1.050435   -0.389589
 ---------------------------------------------------------------------
 Rotational constants (GHZ):           1.4225194           0.6680304           0.6379149
 AO basis set in the form of general basis input (Overlap normalization):
      1 0
 S   6 1.00       0.000000000000
      0.3047524880D+04  0.1834737132D-02
      0.4573695180D+03  0.1403732281D-01
      0.1039486850D+03  0.6884262226D-01
      0.2921015530D+02  0.2321844432D+00
      0.9286662960D+01  0.4679413484D+00
      0.3163926960D+01  0.3623119853D+00
 SP   3 1.00       0.000000000000
      0.7868272350D+01 -0.1193324198D+00  0.6899906659D-01
      0.1881288540D+01 -0.1608541517D+00  0.3164239610D+00
      0.5442492580D+00  0.1143456438D+01  0.7443082909D+00
 SP   1 1.00       0.000000000000
      0.1687144782D+00  0.1000000000D+01  0.1000000000D+01
 D   1 1.00       0.000000000000
      0.8000000000D+00  0.1000000000D+01
 ****
      2 0
 S   3 1.00       0.000000000000
      0.1873113696D+02  0.3349460434D-01
      0.2825394365D+01  0.2347269535D+00
      0.6401216923D+00  0.8137573261D+00
 S   1 1.00       0.000000000000
      0.1612777588D+00  0.1000000000D+01
 P   1 1.00       0.000000000000
      0.1100000000D+01  0.1000000000D+01
 ****
      3 0
 S   3 1.00       0.000000000000
      0.1873113696D+02  0.3349460434D-01
      0.2825394365D+01  0.2347269535D+00
      0.6401216923D+00  0.8137573261D+00
 S   1 1.00       0.000000000000
      0.1612777588D+00  0.1000000000D+01
 P   1 1.00       0.000000000000
      0.1100000000D+01  0.1000000000D+01
 ****
      4 0
 S   6 1.00       0.000000000000
      0.3047524880D+04  0.1834737132D-02
      0.4573695180D+03  0.1403732281D-01
      0.1039486850D+03  0.6884262226D-01
      0.2921015530D+02  0.2321844432D+00
      0.9286662960D+01  0.4679413484D+00
      0.3163926960D+01  0.3623119853D+00
 SP   3 1.00       0.000000000000
      0.7868272350D+01 -0.1193324198D+00  0.6899906659D-01
      0.1881288540D+01 -0.1608541517D+00  0.3164239610D+00
      0.5442492580D+00  0.1143456438D+01  0.7443082909D+00
 SP   1 1.00       0.000000000000
      0.1687144782D+00  0.1000000000D+01  0.1000000000D+01
 D   1 1.00       0.000000000000
      0.8000000000D+00  0.1000000000D+01
 ****
      5 0
 S   6 1.00       0.000000000000
      0.5484671660D+04  0.1831074430D-02
      0.8252349460D+03  0.1395017220D-01
      0.1880469580D+03  0.6844507810D-01
      0.5296450000D+02  0.2327143360D+00
      0.1689757040D+02  0.4701928980D+00
      0.5799635340D+01  0.3585208530D+00
 SP   3 1.00       0.000000000000
      0.1553961625D+02 -0.1107775495D+00  0.7087426823D-01
      0.3599933586D+01 -0.1480262627D+00  0.3397528391D+00
      0.1013761750D+01  0.1130767015D+01  0.7271585773D+00
 SP   1 1.00       0.000000000000
      0.2700058226D+00  0.1000000000D+01  0.1000000000D+01
 D   1 1.00       0.000000000000
      0.8000000000D+00  0.1000000000D+01
 ****
      6 0
 S   3 1.00       0.000000000000
      0.1873113696D+02  0.3349460434D-01
      0.2825394365D+01  0.2347269535D+00
      0.6401216923D+00  0.8137573261D+00
 S   1 1.00       0.000000000000
      0.1612777588D+00  0.1000000000D+01
 P   1 1.00       0.000000000000
      0.1100000000D+01  0.1000000000D+01
 ****
      7 0
 S   6 1.00       0.000000000000
      0.1941330000D+05  0.1851598923D-02
      0.2909420000D+04  0.1420619174D-01
      0.6613640000D+03  0.6999945928D-01
      0.1857590000D+03  0.2400788603D+00
      0.5919430000D+02  0.4847617180D+00
      0.2003100000D+02  0.3351998050D+00
 SP   6 1.00       0.000000000000
      0.3394780000D+03 -0.2782170105D-02  0.4564616191D-02
      0.8101010000D+02 -0.3604990135D-01  0.3369357188D-01
      0.2587800000D+02 -0.1166310044D+00  0.1397548834D+00
      0.9452210000D+01  0.9683280364D-01  0.3393617168D+00
      0.3665660000D+01  0.6144180231D+00  0.4509206237D+00
      0.1467460000D+01  0.4037980152D+00  0.2385858009D+00
 SP   3 1.00       0.000000000000
      0.2156230000D+01 -0.2529241139D+00 -0.1776531273D-01
      0.7489970000D+00  0.3285184468D-01  0.2740581964D+00
      0.2831450000D+00  0.1081254762D+01  0.7854215630D+00
 SP   1 1.00       0.000000000000
      0.9983170000D-01  0.1000000000D+01  0.1000000000D+01
 D   1 1.00       0.000000000000
      0.5500000000D+00  0.1000000000D+01
 ****
      8 0
 S   6 1.00       0.000000000000
      0.1941330000D+05  0.1851598923D-02
      0.2909420000D+04  0.1420619174D-01
      0.6613640000D+03  0.6999945928D-01
      0.1857590000D+03  0.2400788603D+00
      0.5919430000D+02  0.4847617180D+00
      0.2003100000D+02  0.3351998050D+00
 SP   6 1.00       0.000000000000
      0.3394780000D+03 -0.2782170105D-02  0.4564616191D-02
      0.8101010000D+02 -0.3604990135D-01  0.3369357188D-01
      0.2587800000D+02 -0.1166310044D+00  0.1397548834D+00
      0.9452210000D+01  0.9683280364D-01  0.3393617168D+00
      0.3665660000D+01  0.6144180231D+00  0.4509206237D+00
      0.1467460000D+01  0.4037980152D+00  0.2385858009D+00
 SP   3 1.00       0.000000000000
      0.2156230000D+01 -0.2529241139D+00 -0.1776531273D-01
      0.7489970000D+00  0.3285184468D-01  0.2740581964D+00
      0.2831450000D+00  0.1081254762D+01  0.7854215630D+00
 SP   1 1.00       0.000000000000
      0.9983170000D-01  0.1000000000D+01  0.1000000000D+01
 D   1 1.00       0.000000000000
      0.5500000000D+00  0.1000000000D+01
 ****
      9 0
 S   6 1.00       0.000000000000
      0.5484671660D+04  0.1831074430D-02
      0.8252349460D+03  0.1395017220D-01
      0.1880469580D+03  0.6844507810D-01
      0.5296450000D+02  0.2327143360D+00
      0.1689757040D+02  0.4701928980D+00
      0.5799635340D+01  0.3585208530D+00
 SP   3 1.00       0.000000000000
      0.1553961625D+02 -0.1107775495D+00  0.7087426823D-01
      0.3599933586D+01 -0.1480262627D+00  0.3397528391D+00
      0.1013761750D+01  0.1130767015D+01  0.7271585773D+00
 SP   1 1.00       0.000000000000
      0.2700058226D+00  0.1000000000D+01  0.1000000000D+01
 D   1 1.00       0.000000000000
      0.8000000000D+00  0.1000000000D+01
 ****
     10 0
 S   6 1.00       0.000000000000
      0.5484671660D+04  0.1831074430D-02
      0.8252349460D+03  0.1395017220D-01
      0.1880469580D+03  0.6844507810D-01
      0.5296450000D+02  0.2327143360D+00
      0.1689757040D+02  0.4701928980D+00
      0.5799635340D+01  0.3585208530D+00
 SP   3 1.00       0.000000000000
      0.1553961625D+02 -0.1107775495D+00  0.7087426823D-01
      0.3599933586D+01 -0.1480262627D+00  0.3397528391D+00
      0.1013761750D+01  0.1130767015D+01  0.7271585773D+00
 SP   1 1.00       0.000000000000
      0.2700058226D+00  0.1000000000D+01  0.1000000000D+01
 D   1 1.00       0.000000000000
      0.8000000000D+00  0.1000000000D+01
 ****
     11 0
 S   6 1.00       0.000000000000
      0.5484671660D+04  0.1831074430D-02
      0.8252349460D+03  0.1395017220D-01
      0.1880469580D+03  0.6844507810D-01
      0.5296450000D+02  0.2327143360D+00
      0.1689757040D+02  0.4701928980D+00
      0.5799635340D+01  0.3585208530D+00
 SP   3 1.00       0.000000000000
      0.1553961625D+02 -0.1107775495D+00  0.7087426823D-01
      0.3599933586D+01 -0.1480262627D+00  0.3397528391D+00
      0.1013761750D+01  0.1130767015D+01  0.7271585773D+00
 SP   1 1.00       0.000000000000
      0.2700058226D+00  0.1000000000D+01  0.1000000000D+01
 D   1 1.00       0.000000000000
      0.8000000000D+00  0.1000000000D+01
 ****
     12 0
 S   6 1.00       0.000000000000
      0.5484671660D+04  0.1831074430D-02
      0.8252349460D+03  0.1395017220D-01
      0.1880469580D+03  0.6844507810D-01
      0.5296450000D+02  0.2327143360D+00
      0.1689757040D+02  0.4701928980D+00
      0.5799635340D+01  0.3585208530D+00
 SP   3 1.00       0.000000000000
      0.1553961625D+02 -0.1107775495D+00  0.7087426823D-01
      0.3599933586D+01 -0.1480262627D+00  0.3397528391D+00
      0.1013761750D+01  0.1130767015D+01  0.7271585773D+00
 SP   1 1.00       0.000000000000
      0.2700058226D+00  0.1000000000D+01  0.1000000000D+01
 D   1 1.00       0.000000000000
      0.8000000000D+00  0.1000000000D+01
 ****
     13 0
 S   6 1.00       0.000000000000
      0.5484671660D+04  0.1831074430D-02
      0.8252349460D+03  0.1395017220D-01
      0.1880469580D+03  0.6844507810D-01
      0.5296450000D+02  0.2327143360D+00
      0.1689757040D+02  0.4701928980D+00
      0.5799635340D+01  0.3585208530D+00
 SP   3 1.00       0.000000000000
      0.1553961625D+02 -0.1107775495D+00  0.7087426823D-01
      0.3599933586D+01 -0.1480262627D+00  0.3397528391D+00
      0.1013761750D+01  0.1130767015D+01  0.7271585773D+00
 SP   1 1.00       0.000000000000
      0.2700058226D+00  0.1000000000D+01  0.1000000000D+01
 D   1 1.00       0.000000000000
      0.8000000000D+00  0.1000000000D+01
 ****
     14 0
 S   6 1.00       0.000000000000
      0.5484671660D+04  0.1831074430D-02
      0.8252349460D+03  0.1395017220D-01
      0.1880469580D+03  0.6844507810D-01
      0.5296450000D+02  0.2327143360D+00
      0.1689757040D+02  0.4701928980D+00
      0.5799635340D+01  0.3585208530D+00
 SP   3 1.00       0.000000000000
      0.1553961625D+02 -0.1107775495D+00  0.7087426823D-01
      0.3599933586D+01 -0.1480262627D+00  0.3397528391D+00
      0.1013761750D+01  0.1130767015D+01  0.7271585773D+00
 SP   1 1.00       0.000000000000
      0.2700058226D+00  0.1000000000D+01  0.1000000000D+01
 D   1 1.00       0.000000000000
      0.8000000000D+00  0.1000000000D+01
 ****
     15 0
 S   3 1.00       0.000000000000
      0.1873113696D+02  0.3349460434D-01
      0.2825394365D+01  0.2347269535D+00
      0.6401216923D+00  0.8137573261D+00
 S   1 1.00       0.000000000000
      0.1612777588D+00  0.1000000000D+01
 P   1 1.00       0.000000000000
      0.1100000000D+01  0.1000000000D+01
 ****
     16 0
 S   3 1.00       0.000000000000
      0.1873113696D+02  0.3349460434D-01
      0.2825394365D+01  0.2347269535D+00
      0.6401216923D+00  0.8137573261D+00
 S   1 1.00       0.000000000000
      0.1612777588D+00  0.1000000000D+01
 P   1 1.00       0.000000000000
      0.1100000000D+01  0.1000000000D+01
 ****

   198 basis functions,   391 primitive gaussians,   198 cartesian basis functions
    54 alpha electrons       53 beta electrons
       nuclear repulsion energy       953.5005233990 Hartrees.
 NAtoms=   16 NActive=   16 NUniq=   16 SFac= 1.00D+00 NAtFMM=   60 NAOKFM=F Big=F
 ------------------------------------------------------------------------------
 Polarizable Continuum Model (PCM)
 =================================
 Model                : PCM.
 Atomic radii         : UFF (Universal Force Field).
 Polarization charges : Total charges.
 Charge compensation  : None.
 Solution method      : On-the-fly selection.
 Cavity type          : Scaled VdW (van der Waals Surface) (Alpha=1.100).
 Cavity algorithm     : GePol (No added spheres)
                        Default sphere list used, NSphG=   16.
                        Lebedev-Laikov grids with approx.  5.0 points / Ang**2.
                        Smoothing algorithm: York/Karplus (Gamma=1.0000).
                        Polarization charges: spherical gaussians, with
                                              point-specific exponents (IZeta= 3).
                        Self-potential: point-specific (ISelfS= 7).
                        Self-field    : sphere-specific E.n sum rule (ISelfD= 2).
 Solvent              : Water, Eps=  78.355300 Eps(inf)=   1.777849
 ------------------------------------------------------------------------------
 Spheres list:
 ISph  on   Nord     Re0    Alpha      Xe            Ye            Ze
    1   C      1    1.9255  1.100     -0.076754      1.857931     -0.840479
    2   H      2    1.4430  1.100     -0.177993      1.532031     -1.880109
    3   H      3    1.4430  1.100      0.834835      2.454443     -0.758059
    4   C      4    1.9255  1.100      0.011459      0.657531      0.104421
    5   O      5    1.7500  1.100      0.051608      1.160501      1.465161
    6   H      6    1.4430  1.100      0.766949      0.571923      1.830951
    7   P      7    2.0735  1.100      1.689201     -0.273295     -0.096389
    8   P      8    2.0735  1.100     -1.522659     -0.384552     -0.064579
    9   O      9    1.7500  1.100      2.000591     -0.537815      1.415311
   10   O     10    1.7500  1.100     -1.560857     -1.503502      0.960051
   11   O     11    1.7500  1.100     -2.721431      0.712615      0.428511
   12   O     12    1.7500  1.100      2.656229      0.739817     -0.743929
   13   O     13    1.7500  1.100      1.488733     -1.557206     -0.922659
   14   O     14    1.7500  1.100     -1.849168     -0.679133     -1.524119
   15   H     15    1.4430  1.100     -0.945285      2.483889     -0.598949
   16   H     16    1.4430  1.100     -3.110492      1.050435     -0.389589
 ------------------------------------------------------------------------------
 ExpMin= 9.98D-02 ExpMax= 1.94D+04 ExpMxC= 2.91D+03 IAcc=3 IRadAn=         5 AccDes= 0.00D+00
 Harris functional with IExCor=  402 and IRadAn=       5 diagonalized for initial guess.
 HarFok:  IExCor=  402 AccDes= 0.00D+00 IRadAn=         5 IDoV= 1 UseB2=F ITyADJ=14
 ICtDFT=  3500011 ScaDFX=  1.000000  1.000000  1.000000  1.000000
 FoFCou: FMM=F IPFlag=           0 FMFlag=      100000 FMFlg1=           0
         NFxFlg=           0 DoJE=T BraDBF=F KetDBF=T FulRan=T
         wScrn=  0.000000 ICntrl=       500 IOpCl=  0 I1Cent=   200000004 NGrid=           0
         NMat0=    1 NMatS0=      1 NMatT0=    0 NMatD0=    1 NMtDS0=    0 NMtDT0=    0
 Petite list used in FoFCou.
 Initial guess <Sx>= 0.0000 <Sy>= 0.0000 <Sz>= 0.5000 <S**2>= 0.7500 S= 0.5000
 Inv3:  Mode=1 IEnd=     7844067.
 Iteration    1 A*A^-1 deviation from unit magnitude is 5.88D-15 for    393.
 Iteration    1 A*A^-1 deviation from orthogonality  is 3.55D-15 for   1523   1307.
 Iteration    1 A^-1*A deviation from unit magnitude is 6.00D-15 for    171.
 Iteration    1 A^-1*A deviation from orthogonality  is 3.14D-15 for   1422    198.
 Error on total polarization charges =  0.01445
 SCF Done:  E(UB3LYP) =  -1288.94221780     A.U. after   19 cycles
            NFock= 19  Conv=0.50D-08     -V/T= 2.0057
 <Sx>= 0.0000 <Sy>= 0.0000 <Sz>= 0.5000 <S**2>= 0.7508 S= 0.5004
 <L.S>= 0.000000000000E+00
 Annihilation of the first spin contaminant:
 S**2 before annihilation     0.7508,   after     0.7500

 **********************************************************************

            Population analysis using the SCF density.

 **********************************************************************

 Orbital symmetries:
 Alpha Orbitals:
       Occupied  (A) (A) (A) (A) (A) (A) (A) (A) (A) (A) (A) (A)
                 (A) (A) (A) (A) (A) (A) (A) (A) (A) (A) (A) (A)
                 (A) (A) (A) (A) (A) (A) (A) (A) (A) (A) (A) (A)
                 (A) (A) (A) (A) (A) (A) (A) (A) (A) (A) (A) (A)
                 (A) (A) (A) (A) (A) (A)
       Virtual   (A) (A) (A) (A) (A) (A) (A) (A) (A) (A) (A) (A)
                 (A) (A) (A) (A) (A) (A) (A) (A) (A) (A) (A) (A)
                 (A) (A) (A) (A) (A) (A) (A) (A) (A) (A) (A) (A)
                 (A) (A) (A) (A) (A) (A) (A) (A) (A) (A) (A) (A)
                 (A) (A) (A) (A) (A) (A) (A) (A) (A) (A) (A) (A)
                 (A) (A) (A) (A) (A) (A) (A) (A) (A) (A) (A) (A)
                 (A) (A) (A) (A) (A) (A) (A) (A) (A) (A) (A) (A)
                 (A) (A) (A) (A) (A) (A) (A) (A) (A) (A) (A) (A)
                 (A) (A) (A) (A) (A) (A) (A) (A) (A) (A) (A) (A)
                 (A) (A) (A) (A) (A) (A) (A) (A) (A) (A) (A) (A)
                 (A) (A) (A) (A) (A) (A) (A) (A) (A) (A) (A) (A)
                 (A) (A) (A) (A) (A) (A) (A) (A) (A) (A) (A) (A)
 Beta  Orbitals:
       Occupied  (A) (A) (A) (A) (A) (A) (A) (A) (A) (A) (A) (A)
                 (A) (A) (A) (A) (A) (A) (A) (A) (A) (A) (A) (A)
                 (A) (A) (A) (A) (A) (A) (A) (A) (A) (A) (A) (A)
                 (A) (A) (A) (A) (A) (A) (A) (A) (A) (A) (A) (A)
                 (A) (A) (A) (A) (A)
       Virtual   (A) (A) (A) (A) (A) (A) (A) (A) (A) (A) (A) (A)
                 (A) (A) (A) (A) (A) (A) (A) (A) (A) (A) (A) (A)
                 (A) (A) (A) (A) (A) (A) (A) (A) (A) (A) (A) (A)
                 (A) (A) (A) (A) (A) (A) (A) (A) (A) (A) (A) (A)
                 (A) (A) (A) (A) (A) (A) (A) (A) (A) (A) (A) (A)
                 (A) (A) (A) (A) (A) (A) (A) (A) (A) (A) (A) (A)
                 (A) (A) (A) (A) (A) (A) (A) (A) (A) (A) (A) (A)
                 (A) (A) (A) (A) (A) (A) (A) (A) (A) (A) (A) (A)
                 (A) (A) (A) (A) (A) (A) (A) (A) (A) (A) (A) (A)
                 (A) (A) (A) (A) (A) (A) (A) (A) (A) (A) (A) (A)
                 (A) (A) (A) (A) (A) (A) (A) (A) (A) (A) (A) (A)
                 (A) (A) (A) (A) (A) (A) (A) (A) (A) (A) (A) (A)
                 (A)
 The electronic state is 2-A.
 Alpha  occ. eigenvalues --  -77.08207 -77.07435 -19.06515 -19.02095 -19.00561
 Alpha  occ. eigenvalues --  -19.00458 -19.00211 -18.99828 -18.99495 -10.14549
 Alpha  occ. eigenvalues --  -10.11416  -6.53001  -6.52155  -4.69459  -4.69252
 Alpha  occ. eigenvalues --   -4.69194  -4.68511  -4.68463  -4.68435  -0.93966
 Alpha  occ. eigenvalues --   -0.91215  -0.88661  -0.85340  -0.82732  -0.81637
 Alpha  occ. eigenvalues --   -0.81176  -0.67530  -0.54119  -0.45778  -0.43593
 Alpha  occ. eigenvalues --   -0.39395  -0.37468  -0.35176  -0.34454  -0.33218
 Alpha  occ. eigenvalues --   -0.31458  -0.30099  -0.29528  -0.28977  -0.27751
 Alpha  occ. eigenvalues --   -0.27033  -0.23614  -0.22040  -0.21459  -0.21352
 Alpha  occ. eigenvalues --   -0.20361  -0.19087  -0.18397  -0.17725  -0.17530
 Alpha  occ. eigenvalues --   -0.17292  -0.15323  -0.14656   0.06643
 Alpha virt. eigenvalues --    0.16110   0.16610   0.17772   0.19826   0.20906
 Alpha virt. eigenvalues --    0.22952   0.23133   0.25074   0.26255   0.27658
 Alpha virt. eigenvalues --    0.28588   0.30671   0.32246   0.33681   0.41034
 Alpha virt. eigenvalues --    0.41394   0.44334   0.47759   0.48995   0.49100
 Alpha virt. eigenvalues --    0.51660   0.54228   0.62267   0.64822   0.65499
 Alpha virt. eigenvalues --    0.72078   0.72968   0.73672   0.78536   0.80262
 Alpha virt. eigenvalues --    0.84621   0.86532   0.87819   0.88622   0.89290
 Alpha virt. eigenvalues --    0.90951   0.91780   0.93023   0.96712   0.97877
 Alpha virt. eigenvalues --    0.99696   1.00814   1.01722   1.04290   1.06731
 Alpha virt. eigenvalues --    1.07701   1.08191   1.10224   1.10553   1.12415
 Alpha virt. eigenvalues --    1.13400   1.13788   1.14237   1.15727   1.15995
 Alpha virt. eigenvalues --    1.18727   1.21088   1.23556   1.25571   1.26957
 Alpha virt. eigenvalues --    1.28867   1.29987   1.30906   1.32404   1.40103
 Alpha virt. eigenvalues --    1.42287   1.45175   1.50806   1.51385   1.52735
 Alpha virt. eigenvalues --    1.59249   1.62027   1.67676   1.69026   1.72253
 Alpha virt. eigenvalues --    1.73617   1.78506   1.83296   1.84452   1.87614
 Alpha virt. eigenvalues --    1.89713   1.90550   1.91186   1.91452   1.92521
 Alpha virt. eigenvalues --    1.93003   1.94591   1.94756   1.95993   1.96563
 Alpha virt. eigenvalues --    1.97600   1.99244   2.00895   2.07778   2.08346
 Alpha virt. eigenvalues --    2.08756   2.10662   2.11910   2.12799   2.14437
 Alpha virt. eigenvalues --    2.18507   2.20726   2.22728   2.23436   2.27986
 Alpha virt. eigenvalues --    2.33849   2.37076   2.38202   2.40759   2.48687
 Alpha virt. eigenvalues --    2.50605   2.53937   2.56739   2.60041   2.61212
 Alpha virt. eigenvalues --    2.72652   2.75079   2.76845   2.81167   2.82589
 Alpha virt. eigenvalues --    2.86614   2.88104   2.89346   2.91847   2.92470
 Alpha virt. eigenvalues --    2.93831   3.04005   3.07928   3.27202   3.49764
 Alpha virt. eigenvalues --    3.50195   3.50939   3.55656   3.62000   3.67994
 Alpha virt. eigenvalues --    3.85866   3.86113   3.95968   3.99581   4.08649
 Alpha virt. eigenvalues --    4.14974   4.27393   4.46491   4.64926
  Beta  occ. eigenvalues --  -77.08195 -77.07435 -19.06510 -19.01398 -19.00489
  Beta  occ. eigenvalues --  -19.00455 -19.00139 -18.99827 -18.99479 -10.14508
  Beta  occ. eigenvalues --  -10.11281  -6.52982  -6.52155  -4.69436  -4.69238
  Beta  occ. eigenvalues --   -4.69184  -4.68512  -4.68464  -4.68434  -0.93911
  Beta  occ. eigenvalues --   -0.90469  -0.88647  -0.84436  -0.82551  -0.81629
  Beta  occ. eigenvalues --   -0.81151  -0.67359  -0.53886  -0.45344  -0.43455
  Beta  occ. eigenvalues --   -0.38805  -0.37288  -0.34764  -0.34264  -0.33079
  Beta  occ. eigenvalues --   -0.31287  -0.29889  -0.29490  -0.28924  -0.27475
  Beta  occ. eigenvalues --   -0.26877  -0.23474  -0.21732  -0.21426  -0.21300
  Beta  occ. eigenvalues --   -0.20090  -0.18920  -0.18237  -0.17616  -0.17373
  Beta  occ. eigenvalues --   -0.17194  -0.15222  -0.14629
  Beta virt. eigenvalues --    0.14509   0.16821   0.17885   0.18069   0.20328
  Beta virt. eigenvalues --    0.21511   0.23255   0.24314   0.25876   0.26557
  Beta virt. eigenvalues --    0.27848   0.29084   0.30815   0.32542   0.33829
  Beta virt. eigenvalues --    0.41063   0.41818   0.44474   0.47942   0.49042
  Beta virt. eigenvalues --    0.49215   0.51818   0.54712   0.62363   0.64913
  Beta virt. eigenvalues --    0.65607   0.72217   0.73080   0.73814   0.78675
  Beta virt. eigenvalues --    0.80314   0.85145   0.86655   0.88110   0.88993
  Beta virt. eigenvalues --    0.89492   0.91181   0.91885   0.93192   0.96921
  Beta virt. eigenvalues --    0.98460   1.00313   1.01250   1.02019   1.04541
  Beta virt. eigenvalues --    1.07256   1.07800   1.08313   1.10408   1.10762
  Beta virt. eigenvalues --    1.12717   1.13466   1.13822   1.14282   1.15768
  Beta virt. eigenvalues --    1.16451   1.18820   1.21349   1.23733   1.25648
  Beta virt. eigenvalues --    1.27116   1.28970   1.30126   1.31085   1.32528
  Beta virt. eigenvalues --    1.40197   1.42506   1.45261   1.50914   1.51451
  Beta virt. eigenvalues --    1.52842   1.59344   1.62133   1.67952   1.69170
  Beta virt. eigenvalues --    1.72516   1.73768   1.78802   1.83506   1.84529
  Beta virt. eigenvalues --    1.87666   1.89778   1.90597   1.91242   1.91498
  Beta virt. eigenvalues --    1.92559   1.93061   1.94619   1.94823   1.96055
  Beta virt. eigenvalues --    1.96630   1.97692   1.99307   2.00963   2.07883
  Beta virt. eigenvalues --    2.08454   2.08820   2.10736   2.11979   2.12889
  Beta virt. eigenvalues --    2.14537   2.18681   2.20806   2.22874   2.23588
  Beta virt. eigenvalues --    2.28047   2.33970   2.37101   2.38261   2.40985
  Beta virt. eigenvalues --    2.49719   2.50805   2.53971   2.56825   2.60391
  Beta virt. eigenvalues --    2.61698   2.72672   2.75149   2.78552   2.81393
  Beta virt. eigenvalues --    2.83574   2.87198   2.88216   2.89386   2.91885
  Beta virt. eigenvalues --    2.92710   2.93948   3.04045   3.08006   3.27394
  Beta virt. eigenvalues --    3.50063   3.50581   3.52876   3.55686   3.62092
  Beta virt. eigenvalues --    3.68044   3.85910   3.86143   3.96270   3.99747
  Beta virt. eigenvalues --    4.08669   4.15214   4.27686   4.46607   4.65100
     Alpha Molecular Orbital Coefficients:
                           1         2         3         4         5
                           O         O         O         O         O
     Eigenvalues --   -77.08207 -77.07435 -19.06515 -19.02095 -19.00561
   1 1   C  1S         -0.00001  -0.00001   0.00000  -0.00003   0.00003
   2        2S         -0.00002   0.00001   0.00008  -0.00016   0.00009
   3        2PX         0.00001  -0.00001   0.00004   0.00002  -0.00006
   4        2PY         0.00003   0.00004   0.00002   0.00000  -0.00006
   5        2PZ        -0.00001  -0.00002   0.00009   0.00004  -0.00000
   6        3S          0.00003  -0.00010   0.00026   0.00099  -0.00024
   7        3PX         0.00004  -0.00011  -0.00022  -0.00029   0.00051
   8        3PY         0.00014   0.00016  -0.00027  -0.00041   0.00038
   9        3PZ        -0.00014  -0.00011  -0.00032   0.00020  -0.00006
  10        4XX        -0.00001  -0.00002   0.00002  -0.00002   0.00007
  11        4YY        -0.00003  -0.00005   0.00001  -0.00002   0.00004
  12        4ZZ        -0.00003  -0.00003  -0.00007  -0.00002   0.00004
  13        4XY         0.00000   0.00002  -0.00001   0.00001   0.00001
  14        4XZ         0.00002  -0.00002  -0.00000  -0.00001   0.00001
  15        4YZ         0.00001   0.00001   0.00000  -0.00002   0.00001
  16 2   H  1S          0.00001   0.00002  -0.00004  -0.00008   0.00008
  17        2S         -0.00021  -0.00012  -0.00029  -0.00001  -0.00014
  18        3PX         0.00002  -0.00001   0.00001   0.00001  -0.00002
  19        3PY         0.00002   0.00001   0.00002   0.00001  -0.00001
  20        3PZ        -0.00002  -0.00001  -0.00001  -0.00000  -0.00001
  21 3   H  1S         -0.00001   0.00002   0.00007  -0.00001  -0.00006
  22        2S         -0.00001  -0.00014   0.00017   0.00015  -0.00030
  23        3PX         0.00000  -0.00001   0.00000  -0.00001   0.00003
  24        3PY        -0.00001   0.00003  -0.00001  -0.00000   0.00001
  25        3PZ         0.00001  -0.00001   0.00005   0.00000   0.00001
  26 4   C  1S         -0.00004  -0.00005  -0.00002  -0.00000  -0.00001
  27        2S         -0.00004  -0.00013   0.00004  -0.00003  -0.00011
  28        2PX        -0.00005   0.00005   0.00002  -0.00008  -0.00001
  29        2PY        -0.00001  -0.00002   0.00015   0.00005   0.00001
  30        2PZ        -0.00001   0.00001   0.00025  -0.00004  -0.00005
  31        3S          0.00097   0.00125  -0.00091   0.00019   0.00060
  32        3PX        -0.00032   0.00047  -0.00033  -0.00007  -0.00023
  33        3PY        -0.00018  -0.00014  -0.00057  -0.00074  -0.00021
  34        3PZ         0.00007  -0.00004  -0.00067   0.00027   0.00023
  35        4XX        -0.00014  -0.00010   0.00003   0.00006   0.00001
  36        4YY        -0.00010  -0.00009   0.00006   0.00000   0.00003
  37        4ZZ        -0.00007  -0.00007   0.00025  -0.00001  -0.00000
  38        4XY        -0.00005   0.00001   0.00002   0.00003   0.00002
  39        4XZ        -0.00001   0.00000  -0.00001  -0.00001  -0.00000
  40        4YZ        -0.00001  -0.00000   0.00013   0.00002  -0.00000
  41 5   O  1S          0.00000   0.00000   0.99275  -0.00003  -0.00004
  42        2S          0.00001   0.00001   0.02580  -0.00014  -0.00009
  43        2PX        -0.00000  -0.00001   0.00050   0.00002   0.00004
  44        2PY         0.00001   0.00001  -0.00059   0.00003   0.00003
  45        2PZ         0.00002   0.00001  -0.00029   0.00000  -0.00000
  46        3S         -0.00024  -0.00020   0.01221   0.00055   0.00026
  47        3PX         0.00012  -0.00003   0.00008  -0.00020  -0.00018
  48        3PY         0.00005   0.00003  -0.00036  -0.00009  -0.00008
  49        3PZ         0.00009   0.00015  -0.00028  -0.00009   0.00003
  50        4XX         0.00001   0.00001  -0.00805  -0.00006  -0.00008
  51        4YY        -0.00001  -0.00002  -0.00808  -0.00009  -0.00007
  52        4ZZ        -0.00000  -0.00000  -0.00816  -0.00009  -0.00009
  53        4XY         0.00002  -0.00003  -0.00003   0.00003   0.00005
  54        4XZ        -0.00001   0.00002   0.00003   0.00002  -0.00001
  55        4YZ         0.00001  -0.00000  -0.00007  -0.00002  -0.00000
  56 6   H  1S          0.00002  -0.00000   0.00029  -0.00007   0.00000
  57        2S         -0.00014  -0.00021  -0.00178   0.00011   0.00005
  58        3PX         0.00001   0.00002   0.00009   0.00001  -0.00002
  59        3PY         0.00001  -0.00001  -0.00004   0.00002   0.00003
  60        3PZ         0.00002  -0.00003   0.00011   0.00001  -0.00001
  61 7   P  1S         -0.00013   0.99625   0.00000   0.00000  -0.00000
  62        2S          0.00001   0.01417  -0.00001   0.00001  -0.00002
  63        2PX        -0.00001  -0.00002  -0.00000  -0.00001  -0.00000
  64        2PY         0.00000   0.00001   0.00000  -0.00000   0.00000
  65        2PZ        -0.00000   0.00001  -0.00001   0.00000   0.00000
  66        3S          0.00015  -0.02713  -0.00000   0.00004  -0.00006
  67        3PX         0.00007   0.00014  -0.00003   0.00003   0.00003
  68        3PY        -0.00001  -0.00009  -0.00001   0.00001   0.00001
  69        3PZ         0.00004  -0.00002   0.00011  -0.00001   0.00000
  70        4S         -0.00036   0.00252   0.00050  -0.00031   0.00025
  71        4PX         0.00020  -0.00014  -0.00019   0.00017  -0.00014
  72        4PY         0.00013  -0.00003  -0.00013   0.00009  -0.00006
  73        4PZ         0.00004  -0.00001   0.00036   0.00009   0.00003
  74        5XX        -0.00011   0.00941  -0.00002  -0.00004  -0.00002
  75        5YY        -0.00003   0.00943   0.00000   0.00000  -0.00004
  76        5ZZ        -0.00003   0.00945   0.00001  -0.00000  -0.00003
  77        5XY         0.00000   0.00003  -0.00002   0.00001   0.00001
  78        5XZ         0.00002   0.00002   0.00003   0.00003  -0.00001
  79        5YZ        -0.00001  -0.00001  -0.00002  -0.00002  -0.00001
  80 8   P  1S          0.99625   0.00014   0.00001   0.00001   0.00001
  81        2S          0.01417   0.00001   0.00008   0.00003  -0.00009
  82        2PX        -0.00000   0.00001  -0.00001   0.00004  -0.00001
  83        2PY         0.00002   0.00000  -0.00001  -0.00006   0.00001
  84        2PZ         0.00000   0.00000   0.00001  -0.00003  -0.00002
  85        3S         -0.02719   0.00014   0.00044   0.00007   0.00053
  86        3PX        -0.00009  -0.00007   0.00012   0.00010   0.00008
  87        3PY        -0.00011  -0.00005   0.00016   0.00022  -0.00014
  88        3PZ        -0.00002  -0.00001  -0.00002   0.00007   0.00017
  89        4S          0.00291  -0.00026  -0.00178  -0.00306  -0.00237
  90        4PX         0.00032  -0.00019  -0.00036   0.00043  -0.00037
  91        4PY         0.00013   0.00010  -0.00067  -0.00123   0.00158
  92        4PZ        -0.00017   0.00004  -0.00057  -0.00100  -0.00206
  93        5XX         0.00940  -0.00010   0.00000   0.00020  -0.00021
  94        5YY         0.00942  -0.00000   0.00003   0.00021  -0.00013
  95        5ZZ         0.00947  -0.00002  -0.00003   0.00003  -0.00014
  96        5XY        -0.00002  -0.00002   0.00002  -0.00011  -0.00003
  97        5XZ        -0.00001   0.00000   0.00000  -0.00007  -0.00001
  98        5YZ         0.00000  -0.00000   0.00000   0.00011  -0.00013
  99 9   O  1S          0.00000  -0.00000  -0.00000  -0.00001   0.00006
 100        2S          0.00001  -0.00005   0.00005   0.00002   0.00000
 101        2PX        -0.00001   0.00002  -0.00000   0.00000   0.00001
 102        2PY         0.00000  -0.00003  -0.00000   0.00002   0.00000
 103        2PZ        -0.00001   0.00013  -0.00005   0.00000  -0.00001
 104        3S         -0.00001   0.00069  -0.00013  -0.00008  -0.00004
 105        3PX         0.00001  -0.00006  -0.00009   0.00000  -0.00002
 106        3PY        -0.00002   0.00011   0.00012  -0.00006  -0.00001
 107        3PZ         0.00004  -0.00040   0.00030  -0.00000   0.00001
 108        4XX         0.00001  -0.00000   0.00003   0.00001   0.00000
 109        4YY         0.00003   0.00001   0.00003   0.00002  -0.00001
 110        4ZZ         0.00001  -0.00023   0.00001   0.00002  -0.00000
 111        4XY        -0.00000   0.00001   0.00002   0.00001   0.00001
 112        4XZ        -0.00001  -0.00007  -0.00003   0.00000  -0.00000
 113        4YZ         0.00001   0.00005   0.00002   0.00001  -0.00000
 114 10  O  1S          0.00000   0.00000  -0.00003  -0.00001   0.99273
 115        2S         -0.00006   0.00001  -0.00019  -0.00020   0.02563
 116        2PX         0.00001   0.00001  -0.00001  -0.00001   0.00002
 117        2PY        -0.00012   0.00001  -0.00005  -0.00002   0.00046
 118        2PZ         0.00012   0.00001  -0.00002  -0.00005  -0.00046
 119        3S          0.00064  -0.00003   0.00091   0.00121   0.01262
 120        3PX        -0.00007  -0.00003   0.00007  -0.00000   0.00009
 121        3PY         0.00030  -0.00004   0.00032   0.00038   0.00046
 122        3PZ        -0.00029  -0.00001   0.00002   0.00004  -0.00028
 123        4XX         0.00003   0.00001  -0.00014  -0.00015  -0.00815
 124        4YY        -0.00011   0.00002  -0.00009  -0.00013  -0.00814
 125        4ZZ        -0.00008   0.00002  -0.00016  -0.00014  -0.00816
 126        4XY        -0.00002  -0.00000   0.00001   0.00006  -0.00000
 127        4XZ         0.00001   0.00000  -0.00000   0.00002  -0.00000
 128        4YZ         0.00015   0.00001  -0.00000  -0.00001   0.00000
 129 11  O  1S         -0.00002  -0.00000  -0.00004   0.99269  -0.00007
 130        2S         -0.00006  -0.00001  -0.00018   0.02591  -0.00010
 131        2PX        -0.00001  -0.00001  -0.00001   0.00004   0.00002
 132        2PY         0.00003  -0.00000   0.00002  -0.00010   0.00000
 133        2PZ         0.00003   0.00000   0.00000  -0.00057  -0.00004
 134        3S          0.00082   0.00000   0.00088   0.01244   0.00063
 135        3PX         0.00014   0.00004   0.00023   0.00052   0.00001
 136        3PY        -0.00025   0.00002  -0.00012  -0.00031  -0.00017
 137        3PZ        -0.00025  -0.00001   0.00001  -0.00010   0.00022
 138        4XX        -0.00016  -0.00000  -0.00008  -0.00821  -0.00007
 139        4YY        -0.00012  -0.00001  -0.00011  -0.00823  -0.00011
 140        4ZZ        -0.00003  -0.00001  -0.00010  -0.00821  -0.00010
 141        4XY         0.00008  -0.00000  -0.00001   0.00001   0.00001
 142        4XZ         0.00009  -0.00000   0.00001   0.00000   0.00002
 143        4YZ        -0.00007   0.00000  -0.00002  -0.00001   0.00003
 144 12  O  1S         -0.00000  -0.00000  -0.00001  -0.00000   0.00002
 145        2S         -0.00001  -0.00007  -0.00008  -0.00001  -0.00002
 146        2PX         0.00001   0.00009   0.00002   0.00001  -0.00000
 147        2PY         0.00000   0.00011   0.00000   0.00000  -0.00000
 148        2PZ         0.00000  -0.00007  -0.00000   0.00000  -0.00000
 149        3S          0.00003   0.00074   0.00034   0.00005   0.00007
 150        3PX        -0.00006  -0.00027  -0.00008  -0.00005   0.00000
 151        3PY        -0.00002  -0.00031  -0.00004  -0.00002   0.00000
 152        3PZ        -0.00002   0.00020  -0.00001  -0.00002   0.00001
 153        4XX        -0.00000  -0.00009  -0.00006  -0.00001  -0.00001
 154        4YY        -0.00000  -0.00010  -0.00006  -0.00001  -0.00002
 155        4ZZ        -0.00001  -0.00004  -0.00008  -0.00002  -0.00002
 156        4XY         0.00001  -0.00012   0.00001   0.00000  -0.00000
 157        4XZ        -0.00000   0.00008  -0.00001   0.00000  -0.00000
 158        4YZ        -0.00000   0.00008   0.00000   0.00000   0.00000
 159 13  O  1S         -0.00001   0.00000   0.00001  -0.00001   0.00010
 160        2S         -0.00002  -0.00005   0.00004  -0.00004  -0.00004
 161        2PX        -0.00002  -0.00002  -0.00000  -0.00001   0.00004
 162        2PY        -0.00000  -0.00013  -0.00000  -0.00001   0.00001
 163        2PZ        -0.00001  -0.00009   0.00002  -0.00000  -0.00002
 164        3S          0.00016   0.00060  -0.00019   0.00022   0.00016
 165        3PX         0.00007   0.00007   0.00003   0.00004  -0.00011
 166        3PY         0.00003   0.00036   0.00001   0.00005  -0.00000
 167        3PZ         0.00004   0.00024  -0.00011   0.00003   0.00006
 168        4XX        -0.00004   0.00003   0.00003  -0.00003  -0.00003
 169        4YY        -0.00000  -0.00015   0.00004  -0.00002  -0.00005
 170        4ZZ        -0.00000  -0.00005   0.00001  -0.00002  -0.00006
 171        4XY         0.00001  -0.00003   0.00001   0.00000   0.00001
 172        4XZ         0.00000  -0.00002  -0.00000  -0.00000  -0.00002
 173        4YZ         0.00000  -0.00013  -0.00001  -0.00000   0.00001
 174 14  O  1S          0.00002   0.00000  -0.00000  -0.00005  -0.00082
 175        2S         -0.00000  -0.00000   0.00001  -0.00007   0.00008
 176        2PX        -0.00002   0.00001  -0.00000   0.00003  -0.00000
 177        2PY        -0.00002   0.00001  -0.00002  -0.00004   0.00007
 178        2PZ        -0.00016   0.00000   0.00000   0.00001  -0.00000
 179        3S          0.00034   0.00002  -0.00002   0.00044  -0.00056
 180        3PX        -0.00001  -0.00001   0.00003  -0.00010   0.00002
 181        3PY         0.00005  -0.00002   0.00011   0.00025  -0.00038
 182        3PZ         0.00039  -0.00001   0.00004   0.00018   0.00018
 183        4XX         0.00006   0.00000   0.00001  -0.00006   0.00011
 184        4YY         0.00007   0.00002   0.00002  -0.00004   0.00006
 185        4ZZ        -0.00015   0.00000   0.00002  -0.00003   0.00015
 186        4XY        -0.00002  -0.00000  -0.00000   0.00004  -0.00001
 187        4XZ        -0.00007  -0.00000  -0.00000   0.00002   0.00001
 188        4YZ        -0.00006  -0.00001   0.00001  -0.00000  -0.00001
 189 15  H  1S          0.00001  -0.00001   0.00003  -0.00002   0.00006
 190        2S         -0.00016  -0.00002   0.00002  -0.00008   0.00002
 191        3PX         0.00001   0.00001  -0.00000  -0.00001  -0.00002
 192        3PY         0.00003  -0.00001   0.00000   0.00001  -0.00002
 193        3PZ        -0.00001   0.00001   0.00005   0.00001  -0.00000
 194 16  H  1S         -0.00011   0.00000  -0.00004   0.00037   0.00006
 195        2S         -0.00022  -0.00002   0.00012  -0.00094  -0.00032
 196        3PX         0.00001  -0.00000   0.00001  -0.00004  -0.00002
 197        3PY        -0.00000  -0.00000   0.00000   0.00003   0.00003
 198        3PZ        -0.00002   0.00000   0.00000  -0.00000   0.00004
                           6         7         8         9        10
                           O         O         O         O         O
     Eigenvalues --   -19.00458 -19.00211 -18.99828 -18.99495 -10.14549
   1 1   C  1S          0.00000  -0.00003  -0.00003   0.00002   0.00336
   2        2S          0.00003  -0.00011  -0.00010   0.00004  -0.00012
   3        2PX        -0.00000   0.00007  -0.00002   0.00002  -0.00006
   4        2PY         0.00001   0.00005   0.00004  -0.00000  -0.00006
   5        2PZ        -0.00003  -0.00002   0.00002  -0.00002  -0.00005
   6        3S         -0.00023   0.00020   0.00064  -0.00050   0.00577
   7        3PX        -0.00022  -0.00055   0.00020   0.00009   0.00052
   8        3PY         0.00004  -0.00029  -0.00028   0.00036  -0.00114
   9        3PZ        -0.00004  -0.00003   0.00029   0.00004   0.00200
  10        4XX        -0.00000  -0.00004  -0.00006   0.00009  -0.00012
  11        4YY         0.00001  -0.00004  -0.00005   0.00002  -0.00038
  12        4ZZ        -0.00002  -0.00003  -0.00002   0.00002  -0.00024
  13        4XY         0.00001   0.00000   0.00001  -0.00001   0.00003
  14        4XZ        -0.00002   0.00001   0.00001  -0.00001  -0.00001
  15        4YZ         0.00000   0.00000  -0.00003   0.00001   0.00017
  16 2   H  1S          0.00004  -0.00001  -0.00008   0.00002  -0.00006
  17        2S         -0.00006  -0.00003   0.00024   0.00028  -0.00017
  18        3PX         0.00001   0.00001  -0.00001   0.00003  -0.00001
  19        3PY         0.00000  -0.00002   0.00001  -0.00001   0.00002
  20        3PZ         0.00000  -0.00001   0.00002   0.00002  -0.00000
  21 3   H  1S          0.00000   0.00006  -0.00002   0.00007  -0.00028
  22        2S          0.00018   0.00032  -0.00017  -0.00022  -0.00065
  23        3PX        -0.00000  -0.00002  -0.00001   0.00003   0.00001
  24        3PY        -0.00001  -0.00002   0.00002   0.00002  -0.00003
  25        3PZ        -0.00001  -0.00000  -0.00001   0.00001   0.00001
  26 4   C  1S         -0.00004  -0.00003  -0.00002  -0.00002   0.99326
  27        2S         -0.00019  -0.00018  -0.00012  -0.00013   0.04987
  28        2PX        -0.00004   0.00001   0.00003  -0.00002  -0.00013
  29        2PY        -0.00000  -0.00002   0.00006  -0.00003   0.00063
  30        2PZ         0.00002   0.00005   0.00003  -0.00001   0.00060
  31        3S          0.00135   0.00095   0.00045   0.00079  -0.02041
  32        3PX         0.00073  -0.00053   0.00001   0.00046   0.00026
  33        3PY         0.00007  -0.00019  -0.00097   0.00011  -0.00189
  34        3PZ         0.00039  -0.00035  -0.00016  -0.00059  -0.00023
  35        4XX        -0.00004   0.00001   0.00002   0.00001  -0.00860
  36        4YY        -0.00003  -0.00002  -0.00001  -0.00003  -0.00857
  37        4ZZ         0.00000  -0.00003  -0.00005  -0.00006  -0.00842
  38        4XY        -0.00002   0.00004  -0.00003  -0.00002   0.00000
  39        4XZ        -0.00002   0.00002  -0.00000  -0.00002   0.00003
  40        4YZ         0.00003   0.00002   0.00001  -0.00003  -0.00001
  41 5   O  1S          0.00001   0.00002   0.00000  -0.00005  -0.00014
  42        2S          0.00002   0.00004  -0.00001  -0.00015  -0.00040
  43        2PX        -0.00002  -0.00003   0.00002  -0.00003  -0.00001
  44        2PY        -0.00004  -0.00003  -0.00000   0.00001   0.00002
  45        2PZ        -0.00004  -0.00000  -0.00000   0.00004   0.00013
  46        3S         -0.00002  -0.00010   0.00013   0.00060   0.00397
  47        3PX         0.00025   0.00016  -0.00007   0.00005  -0.00001
  48        3PY         0.00003   0.00008   0.00006  -0.00008  -0.00009
  49        3PZ         0.00044   0.00004  -0.00009  -0.00023  -0.00098
  50        4XX         0.00005   0.00006  -0.00000  -0.00010  -0.00016
  51        4YY         0.00001   0.00003  -0.00001  -0.00013  -0.00031
  52        4ZZ        -0.00004   0.00004   0.00003  -0.00010  -0.00072
  53        4XY        -0.00002  -0.00002  -0.00000   0.00000   0.00001
  54        4XZ         0.00004  -0.00001   0.00000  -0.00001   0.00002
  55        4YZ        -0.00006  -0.00000  -0.00001   0.00003  -0.00029
  56 6   H  1S         -0.00015   0.00003   0.00003  -0.00007   0.00005
  57        2S         -0.00068  -0.00014  -0.00005   0.00023  -0.00021
  58        3PX        -0.00001   0.00001  -0.00001  -0.00001  -0.00001
  59        3PY         0.00001  -0.00002   0.00000   0.00002  -0.00009
  60        3PZ         0.00004   0.00001   0.00001  -0.00001  -0.00014
  61 7   P  1S          0.00001  -0.00000   0.00001   0.00001   0.00001
  62        2S         -0.00004  -0.00003  -0.00006  -0.00006  -0.00008
  63        2PX        -0.00000  -0.00001   0.00001  -0.00002   0.00004
  64        2PY         0.00001  -0.00000   0.00002  -0.00002  -0.00003
  65        2PZ        -0.00003  -0.00001   0.00002   0.00001   0.00000
  66        3S          0.00055  -0.00007   0.00058   0.00056  -0.00007
  67        3PX        -0.00004   0.00007  -0.00007   0.00007  -0.00046
  68        3PY        -0.00004   0.00004  -0.00010   0.00016   0.00033
  69        3PZ         0.00014   0.00007  -0.00014  -0.00007  -0.00000
  70        4S         -0.00338   0.00044  -0.00281  -0.00280   0.00394
  71        4PX         0.00038  -0.00016   0.00072  -0.00081  -0.00121
  72        4PY         0.00015   0.00008   0.00138  -0.00160   0.00136
  73        4PZ        -0.00173  -0.00008   0.00095   0.00060   0.00059
  74        5XX        -0.00014  -0.00005  -0.00020  -0.00007   0.00007
  75        5YY        -0.00024  -0.00003  -0.00002  -0.00007   0.00010
  76        5ZZ         0.00009  -0.00003  -0.00018  -0.00019  -0.00002
  77        5XY        -0.00004  -0.00002   0.00001   0.00012  -0.00008
  78        5XZ         0.00009  -0.00002   0.00005  -0.00010  -0.00001
  79        5YZ        -0.00009   0.00001   0.00017  -0.00011   0.00005
  80 8   P  1S         -0.00000   0.00002  -0.00000   0.00000   0.00000
  81        2S         -0.00004  -0.00002  -0.00000   0.00000  -0.00010
  82        2PX         0.00001  -0.00001   0.00000  -0.00000  -0.00003
  83        2PY        -0.00000  -0.00000   0.00000   0.00000  -0.00002
  84        2PZ         0.00001   0.00003   0.00001  -0.00001  -0.00002
  85        3S         -0.00010   0.00091  -0.00004  -0.00000  -0.00011
  86        3PX        -0.00008   0.00008  -0.00002   0.00003   0.00048
  87        3PY        -0.00000   0.00007   0.00001   0.00000   0.00024
  88        3PZ        -0.00006  -0.00022  -0.00003   0.00005   0.00010
  89        4S          0.00084  -0.00405  -0.00063   0.00004   0.00468
  90        4PX         0.00044   0.00013  -0.00022  -0.00020   0.00098
  91        4PY        -0.00006  -0.00072  -0.00005   0.00035   0.00202
  92        4PZ         0.00020   0.00235   0.00031  -0.00017   0.00018
  93        5XX        -0.00004  -0.00019   0.00000  -0.00000  -0.00007
  94        5YY        -0.00003  -0.00024   0.00001   0.00001  -0.00003
  95        5ZZ        -0.00004  -0.00003  -0.00004   0.00002   0.00007
  96        5XY         0.00001   0.00000  -0.00004  -0.00001   0.00007
  97        5XZ        -0.00002   0.00004  -0.00004   0.00004   0.00004
  98        5YZ        -0.00002   0.00005   0.00001   0.00003   0.00001
  99 9   O  1S          0.99275   0.00013   0.00010   0.00013   0.00006
 100        2S          0.02564   0.00002  -0.00009  -0.00007   0.00021
 101        2PX        -0.00012  -0.00001   0.00003  -0.00005   0.00003
 102        2PY         0.00012  -0.00001   0.00005  -0.00004   0.00001
 103        2PZ        -0.00055  -0.00001  -0.00001  -0.00001   0.00001
 104        3S          0.01233  -0.00010   0.00053   0.00046  -0.00134
 105        3PX        -0.00034   0.00003  -0.00017   0.00019  -0.00000
 106        3PY         0.00022   0.00003  -0.00026   0.00028  -0.00016
 107        3PZ        -0.00043   0.00005  -0.00022  -0.00020   0.00018
 108        4XX        -0.00810   0.00002  -0.00003  -0.00005   0.00020
 109        4YY        -0.00809   0.00002  -0.00010  -0.00003   0.00011
 110        4ZZ        -0.00814   0.00002  -0.00003  -0.00001   0.00015
 111        4XY        -0.00002  -0.00001  -0.00000  -0.00003  -0.00009
 112        4XZ        -0.00001  -0.00001   0.00002   0.00000   0.00002
 113        4YZ         0.00002   0.00000   0.00000  -0.00002   0.00001
 114 10  O  1S         -0.00005   0.00087  -0.00014  -0.00004   0.00003
 115        2S          0.00005   0.00006  -0.00009  -0.00006   0.00016
 116        2PX        -0.00002   0.00001  -0.00004   0.00001   0.00002
 117        2PY         0.00001   0.00004   0.00001  -0.00000   0.00003
 118        2PZ        -0.00000   0.00004   0.00002   0.00000   0.00003
 119        3S         -0.00034  -0.00018   0.00035   0.00030  -0.00081
 120        3PX         0.00004  -0.00006   0.00015  -0.00001  -0.00019
 121        3PY        -0.00006  -0.00003   0.00002   0.00002  -0.00040
 122        3PZ         0.00004  -0.00038  -0.00014  -0.00004  -0.00002
 123        4XX         0.00004   0.00006  -0.00006  -0.00004   0.00010
 124        4YY         0.00002   0.00004  -0.00007  -0.00003   0.00003
 125        4ZZ         0.00001   0.00008  -0.00006  -0.00003   0.00010
 126        4XY         0.00000  -0.00002   0.00000   0.00000   0.00003
 127        4XZ         0.00000  -0.00001  -0.00002   0.00000   0.00004
 128        4YZ        -0.00001  -0.00005  -0.00002   0.00000   0.00001
 129 11  O  1S          0.00002  -0.00000  -0.00001   0.00000   0.00002
 130        2S          0.00002  -0.00016  -0.00002   0.00002   0.00013
 131        2PX         0.00001  -0.00002  -0.00001  -0.00001  -0.00003
 132        2PY         0.00000   0.00001  -0.00000  -0.00001  -0.00003
 133        2PZ         0.00001   0.00003   0.00001  -0.00000   0.00003
 134        3S         -0.00008   0.00092   0.00007  -0.00012  -0.00093
 135        3PX        -0.00006   0.00026   0.00006  -0.00001  -0.00027
 136        3PY         0.00001  -0.00016   0.00002   0.00004   0.00029
 137        3PZ        -0.00005  -0.00030  -0.00006   0.00003  -0.00012
 138        4XX         0.00001  -0.00006  -0.00001   0.00001   0.00011
 139        4YY         0.00001  -0.00009  -0.00002   0.00001   0.00003
 140        4ZZ         0.00002  -0.00012  -0.00001   0.00000   0.00000
 141        4XY         0.00000   0.00001   0.00001   0.00000   0.00004
 142        4XZ        -0.00000  -0.00003  -0.00000   0.00000   0.00001
 143        4YZ         0.00000  -0.00001  -0.00000  -0.00000   0.00001
 144 12  O  1S         -0.00016  -0.00006  -0.00047   0.99277   0.00006
 145        2S         -0.00008   0.00004  -0.00005   0.02573   0.00028
 146        2PX        -0.00002  -0.00001  -0.00000  -0.00035   0.00000
 147        2PY        -0.00002  -0.00000   0.00002  -0.00044   0.00001
 148        2PZ        -0.00004  -0.00000   0.00006   0.00025   0.00001
 149        3S          0.00047  -0.00021   0.00028   0.01195  -0.00152
 150        3PX        -0.00008   0.00004  -0.00012  -0.00038   0.00030
 151        3PY        -0.00004   0.00002  -0.00025  -0.00020   0.00002
 152        3PZ         0.00034   0.00001  -0.00021   0.00025  -0.00022
 153        4XX        -0.00002   0.00004   0.00002  -0.00804   0.00019
 154        4YY        -0.00002   0.00003  -0.00001  -0.00806   0.00021
 155        4ZZ        -0.00005   0.00003  -0.00003  -0.00803   0.00012
 156        4XY         0.00000  -0.00000   0.00001  -0.00002  -0.00004
 157        4XZ        -0.00004  -0.00000   0.00001   0.00000  -0.00001
 158        4YZ        -0.00001  -0.00000  -0.00003   0.00001   0.00000
 159 13  O  1S         -0.00015   0.00023   0.99277   0.00045   0.00004
 160        2S         -0.00014  -0.00006   0.02572  -0.00001   0.00016
 161        2PX         0.00001   0.00004   0.00013  -0.00001  -0.00006
 162        2PY         0.00003  -0.00001   0.00052  -0.00001   0.00001
 163        2PZ        -0.00005  -0.00000   0.00034   0.00005   0.00001
 164        3S          0.00078   0.00022   0.01197   0.00020  -0.00074
 165        3PX        -0.00001  -0.00015  -0.00009   0.00012   0.00033
 166        3PY         0.00007   0.00004   0.00042   0.00026  -0.00029
 167        3PZ         0.00042   0.00001   0.00026  -0.00016  -0.00015
 168        4XX        -0.00007  -0.00004  -0.00804  -0.00001   0.00012
 169        4YY        -0.00007  -0.00007  -0.00806   0.00002   0.00007
 170        4ZZ        -0.00007  -0.00008  -0.00805  -0.00003   0.00007
 171        4XY        -0.00000  -0.00002  -0.00001  -0.00002   0.00001
 172        4XZ        -0.00001   0.00000  -0.00001   0.00003   0.00002
 173        4YZ         0.00005   0.00002  -0.00001   0.00001  -0.00002
 174 14  O  1S         -0.00011   0.99272  -0.00029   0.00008   0.00006
 175        2S          0.00003   0.02557  -0.00016   0.00004   0.00025
 176        2PX         0.00002   0.00016  -0.00002  -0.00000   0.00001
 177        2PY        -0.00001   0.00005   0.00000   0.00002   0.00006
 178        2PZ         0.00001   0.00061  -0.00001  -0.00000  -0.00001
 179        3S         -0.00018   0.01293   0.00072  -0.00018  -0.00131
 180        3PX        -0.00010   0.00019   0.00012   0.00002  -0.00022
 181        3PY         0.00003   0.00034   0.00001  -0.00010  -0.00042
 182        3PZ        -0.00006   0.00056   0.00012  -0.00001  -0.00021
 183        4XX         0.00003  -0.00818  -0.00010   0.00003   0.00016
 184        4YY         0.00003  -0.00817  -0.00012   0.00003   0.00012
 185        4ZZ         0.00003  -0.00819  -0.00010   0.00003   0.00014
 186        4XY         0.00000   0.00000  -0.00001  -0.00000   0.00003
 187        4XZ        -0.00001  -0.00000   0.00001   0.00001  -0.00002
 188        4YZ         0.00000   0.00002   0.00001  -0.00001  -0.00005
 189 15  H  1S         -0.00001  -0.00008  -0.00000   0.00001  -0.00019
 190        2S         -0.00006   0.00003   0.00013  -0.00005  -0.00038
 191        3PX         0.00000   0.00001   0.00002  -0.00002  -0.00001
 192        3PY         0.00000  -0.00000  -0.00001  -0.00000  -0.00004
 193        3PZ         0.00000   0.00000  -0.00001   0.00001  -0.00000
 194 16  H  1S         -0.00002  -0.00006  -0.00002   0.00001   0.00001
 195        2S          0.00003   0.00041   0.00004  -0.00010  -0.00065
 196        3PX        -0.00000   0.00002  -0.00000  -0.00001  -0.00009
 197        3PY        -0.00000  -0.00000  -0.00000   0.00000   0.00002
 198        3PZ        -0.00001  -0.00002  -0.00000   0.00000   0.00001
                          11        12        13        14        15
                           O         O         O         O         O
     Eigenvalues --   -10.11416  -6.53001  -6.52155  -4.69459  -4.69252
   1 1   C  1S          0.99295  -0.00003  -0.00002   0.00002  -0.00004
   2        2S          0.05011  -0.00025  -0.00021   0.00004  -0.00004
   3        2PX        -0.00001   0.00009  -0.00006  -0.00002   0.00012
   4        2PY        -0.00002  -0.00002  -0.00008  -0.00015   0.00019
   5        2PZ        -0.00015   0.00006   0.00007   0.00003  -0.00011
   6        3S         -0.01733   0.00112   0.00117   0.00074  -0.00131
   7        3PX         0.00023  -0.00152   0.00145  -0.00004  -0.00086
   8        3PY         0.00142  -0.00155  -0.00114   0.00023   0.00112
   9        3PZ        -0.00081   0.00077   0.00049   0.00122  -0.00038
  10        4XX        -0.00885  -0.00006   0.00002   0.00011  -0.00013
  11        4YY        -0.00904   0.00010   0.00011  -0.00003  -0.00030
  12        4ZZ        -0.00894  -0.00000   0.00001   0.00017  -0.00004
  13        4XY         0.00002   0.00008  -0.00012   0.00006  -0.00007
  14        4XZ         0.00000  -0.00010   0.00012  -0.00007  -0.00001
  15        4YZ         0.00016  -0.00009  -0.00006  -0.00009   0.00004
  16 2   H  1S         -0.00008  -0.00019  -0.00014   0.00015   0.00012
  17        2S          0.00247   0.00077   0.00034   0.00023  -0.00086
  18        3PX        -0.00003   0.00002  -0.00004   0.00002   0.00011
  19        3PY        -0.00014  -0.00002   0.00002   0.00004   0.00008
  20        3PZ        -0.00022   0.00007   0.00003  -0.00003  -0.00011
  21 3   H  1S         -0.00015   0.00012  -0.00022  -0.00004   0.00006
  22        2S          0.00232   0.00085   0.00026  -0.00019   0.00041
  23        3PX         0.00022  -0.00003  -0.00001   0.00006  -0.00003
  24        3PY         0.00010   0.00002  -0.00006  -0.00003  -0.00008
  25        3PZ         0.00006  -0.00006   0.00005  -0.00004  -0.00003
  26 4   C  1S         -0.00357   0.00012   0.00020   0.00003   0.00007
  27        2S         -0.00026   0.00084   0.00123   0.00004   0.00040
  28        2PX        -0.00001   0.00006   0.00001  -0.00026   0.00003
  29        2PY        -0.00010  -0.00005  -0.00003   0.00030  -0.00023
  30        2PZ         0.00002  -0.00005  -0.00008   0.00009   0.00035
  31        3S          0.00360  -0.00456  -0.00602  -0.00105  -0.00201
  32        3PX         0.00023   0.00176  -0.00250   0.00205   0.00007
  33        3PY         0.00203   0.00045   0.00056  -0.00299   0.00194
  34        3PZ        -0.00133  -0.00034   0.00011  -0.00110  -0.00463
  35        4XX        -0.00009   0.00012  -0.00000  -0.00010   0.00013
  36        4YY        -0.00026   0.00019   0.00024   0.00022   0.00012
  37        4ZZ        -0.00017   0.00011   0.00021  -0.00014  -0.00003
  38        4XY         0.00001  -0.00011   0.00021   0.00014  -0.00011
  39        4XZ        -0.00002   0.00000   0.00002   0.00012   0.00037
  40        4YZ         0.00010   0.00001  -0.00003   0.00006  -0.00004
  41 5   O  1S         -0.00001  -0.00008  -0.00004  -0.00002  -0.00005
  42        2S         -0.00007  -0.00040  -0.00021  -0.00010  -0.00035
  43        2PX        -0.00002   0.00012  -0.00003   0.00002  -0.00007
  44        2PY        -0.00004   0.00003  -0.00003  -0.00015  -0.00001
  45        2PZ         0.00007  -0.00001   0.00003   0.00001  -0.00005
  46        3S         -0.00009   0.00222   0.00142   0.00113   0.00269
  47        3PX         0.00000  -0.00109   0.00061  -0.00049   0.00008
  48        3PY         0.00015  -0.00051  -0.00032   0.00067  -0.00082
  49        3PZ        -0.00016  -0.00081  -0.00085  -0.00074  -0.00076
  50        4XX        -0.00017  -0.00023  -0.00007   0.00001  -0.00011
  51        4YY         0.00000  -0.00020  -0.00004  -0.00017   0.00004
  52        4ZZ         0.00005  -0.00020  -0.00003   0.00010  -0.00008
  53        4XY         0.00001   0.00008  -0.00004   0.00003  -0.00007
  54        4XZ        -0.00000   0.00011  -0.00012   0.00005   0.00002
  55        4YZ        -0.00007   0.00009   0.00004  -0.00006   0.00009
  56 6   H  1S          0.00006  -0.00007  -0.00004   0.00023  -0.00025
  57        2S          0.00010   0.00070   0.00096   0.00036   0.00042
  58        3PX        -0.00004  -0.00006   0.00006  -0.00003  -0.00002
  59        3PY        -0.00000   0.00006  -0.00011   0.00001  -0.00010
  60        3PZ         0.00000  -0.00006  -0.00002  -0.00001  -0.00010
  61 7   P  1S         -0.00000   0.00001  -0.27422   0.00000  -0.00000
  62        2S         -0.00006  -0.00018   1.02399   0.00009  -0.00004
  63        2PX        -0.00000   0.00002   0.00080   0.00059  -0.00026
  64        2PY         0.00002   0.00001  -0.00074  -0.00013  -0.00013
  65        2PZ         0.00001   0.00000   0.00047   0.00013   0.00070
  66        3S         -0.00008  -0.00071   0.07439   0.00066  -0.00030
  67        3PX         0.00002  -0.00003  -0.00047   0.00046  -0.00025
  68        3PY        -0.00030  -0.00006   0.00030  -0.00021  -0.00009
  69        3PZ        -0.00001  -0.00003   0.00028   0.00009   0.00027
  70        4S          0.00041   0.00259  -0.00968  -0.00380   0.00122
  71        4PX        -0.00032  -0.00169   0.00150   0.00184  -0.00085
  72        4PY        -0.00005  -0.00099  -0.00011   0.00071  -0.00070
  73        4PZ        -0.00011   0.00001  -0.00009  -0.00004   0.00169
  74        5XX        -0.00012   0.00025  -0.01730  -0.00045   0.00013
  75        5YY        -0.00011  -0.00002  -0.01694  -0.00006  -0.00004
  76        5ZZ        -0.00010  -0.00001  -0.01681  -0.00003   0.00005
  77        5XY         0.00001   0.00001   0.00017   0.00007  -0.00002
  78        5XZ         0.00002  -0.00004  -0.00011   0.00002  -0.00019
  79        5YZ         0.00001   0.00003   0.00009  -0.00000   0.00014
  80 8   P  1S         -0.00001  -0.27421  -0.00003   0.00044   0.00001
  81        2S         -0.00013   1.02406  -0.00004  -0.00187  -0.00009
  82        2PX         0.00002  -0.00214  -0.00002  -0.65555   0.14476
  83        2PY        -0.00001   0.00009   0.00000   0.67626  -0.29047
  84        2PZ         0.00000   0.00042   0.00000   0.31100   0.93693
  85        3S         -0.00054   0.07498  -0.00066  -0.00098  -0.00036
  86        3PX        -0.00019   0.00029   0.00002  -0.01980   0.00478
  87        3PY        -0.00008   0.00054  -0.00002   0.02058  -0.00938
  88        3PZ        -0.00004   0.00009  -0.00003   0.00923   0.02992
  89        4S          0.00222  -0.01298   0.00248   0.00356   0.00172
  90        4PX         0.00012  -0.00213   0.00181   0.00541  -0.00101
  91        4PY         0.00146  -0.00200  -0.00067  -0.00385   0.00213
  92        4PZ        -0.00051   0.00083  -0.00015  -0.00138  -0.00318
  93        5XX        -0.00010  -0.01724   0.00027   0.00085  -0.00000
  94        5YY        -0.00007  -0.01698  -0.00013   0.00045   0.00101
  95        5ZZ        -0.00005  -0.01693  -0.00001  -0.00083  -0.00083
  96        5XY        -0.00004  -0.00007   0.00004  -0.00135   0.00004
  97        5XZ        -0.00001   0.00011   0.00001  -0.00065  -0.00061
  98        5YZ        -0.00002  -0.00013  -0.00004   0.00063  -0.00147
  99 9   O  1S         -0.00000   0.00004  -0.00006  -0.00002   0.00005
 100        2S         -0.00001   0.00018   0.00061  -0.00011   0.00024
 101        2PX         0.00000  -0.00002  -0.00009  -0.00002   0.00008
 102        2PY         0.00002  -0.00004   0.00014   0.00004  -0.00003
 103        2PZ        -0.00000  -0.00000  -0.00050   0.00002   0.00002
 104        3S          0.00002  -0.00096  -0.00363   0.00072  -0.00148
 105        3PX         0.00001   0.00029   0.00034  -0.00006  -0.00011
 106        3PY        -0.00001   0.00014  -0.00061  -0.00021   0.00012
 107        3PZ        -0.00002   0.00007   0.00238  -0.00018   0.00009
 108        4XX         0.00001   0.00011   0.00031  -0.00008   0.00019
 109        4YY        -0.00002   0.00007   0.00028  -0.00002   0.00009
 110        4ZZ         0.00001   0.00012   0.00073  -0.00007   0.00014
 111        4XY         0.00000   0.00001   0.00001   0.00001  -0.00003
 112        4XZ         0.00001  -0.00002   0.00015   0.00001   0.00000
 113        4YZ        -0.00002  -0.00005  -0.00010   0.00004  -0.00004
 114 10  O  1S         -0.00004  -0.00013   0.00003   0.00029  -0.00053
 115        2S         -0.00014   0.00063   0.00016   0.00009   0.00131
 116        2PX        -0.00001  -0.00006  -0.00002  -0.00005   0.00004
 117        2PY         0.00001   0.00049  -0.00002  -0.00017   0.00105
 118        2PZ         0.00002  -0.00054  -0.00004   0.00033  -0.00078
 119        3S          0.00066  -0.00359  -0.00097  -0.00071  -0.00577
 120        3PX         0.00004   0.00038  -0.00010   0.00028  -0.00016
 121        3PY        -0.00004  -0.00159   0.00002   0.00012  -0.00348
 122        3PZ        -0.00011   0.00181   0.00025  -0.00105   0.00207
 123        4XX        -0.00012   0.00015   0.00012   0.00031   0.00011
 124        4YY        -0.00012   0.00059   0.00008  -0.00013   0.00048
 125        4ZZ        -0.00011   0.00051   0.00004   0.00042   0.00079
 126        4XY         0.00002   0.00006  -0.00001   0.00019   0.00003
 127        4XZ        -0.00001  -0.00004   0.00002  -0.00016   0.00001
 128        4YZ        -0.00002  -0.00043  -0.00004   0.00014  -0.00060
 129 11  O  1S          0.00006   0.00001   0.00001  -0.00010  -0.00004
 130        2S          0.00024   0.00039   0.00001   0.00124  -0.00022
 131        2PX         0.00005  -0.00001   0.00006   0.00031   0.00008
 132        2PY        -0.00001  -0.00014   0.00004  -0.00027  -0.00011
 133        2PZ         0.00000  -0.00010  -0.00001  -0.00019   0.00020
 134        3S         -0.00114  -0.00269   0.00006  -0.00550   0.00097
 135        3PX        -0.00047  -0.00047  -0.00024  -0.00268  -0.00077
 136        3PY         0.00014   0.00131  -0.00016   0.00234   0.00087
 137        3PZ        -0.00003   0.00134   0.00002   0.00212  -0.00187
 138        4XX         0.00013   0.00037  -0.00000   0.00033  -0.00030
 139        4YY         0.00017   0.00024   0.00004   0.00042  -0.00042
 140        4ZZ         0.00020   0.00000   0.00003   0.00020   0.00039
 141        4XY        -0.00002   0.00009  -0.00000   0.00045   0.00012
 142        4XZ         0.00004  -0.00017   0.00001  -0.00003  -0.00025
 143        4YZ        -0.00004   0.00012   0.00001   0.00004   0.00020
 144 12  O  1S         -0.00003  -0.00000  -0.00008  -0.00001  -0.00006
 145        2S         -0.00012  -0.00001   0.00067  -0.00006  -0.00026
 146        2PX         0.00007  -0.00008  -0.00037   0.00006   0.00001
 147        2PY         0.00001   0.00001  -0.00045   0.00000   0.00004
 148        2PZ         0.00001  -0.00002   0.00026   0.00002   0.00006
 149        3S          0.00045   0.00021  -0.00389   0.00021   0.00135
 150        3PX        -0.00021   0.00032   0.00142  -0.00032  -0.00015
 151        3PY        -0.00012   0.00001   0.00181  -0.00007  -0.00025
 152        3PZ         0.00005   0.00012  -0.00107  -0.00009  -0.00022
 153        4XX        -0.00006  -0.00002   0.00051  -0.00004  -0.00017
 154        4YY        -0.00012  -0.00002   0.00051  -0.00003  -0.00018
 155        4ZZ        -0.00013   0.00002   0.00036  -0.00005  -0.00021
 156        4XY         0.00002  -0.00002   0.00031   0.00003   0.00003
 157        4XZ        -0.00001   0.00001  -0.00021   0.00000   0.00001
 158        4YZ        -0.00004  -0.00000  -0.00018   0.00000   0.00001
 159 13  O  1S          0.00004   0.00004  -0.00011  -0.00000   0.00003
 160        2S          0.00016   0.00019   0.00057  -0.00005   0.00011
 161        2PX        -0.00003   0.00009   0.00009  -0.00016  -0.00004
 162        2PY         0.00005  -0.00001   0.00053   0.00000  -0.00000
 163        2PZ        -0.00000   0.00005   0.00036  -0.00003   0.00007
 164        3S         -0.00076  -0.00127  -0.00328   0.00074  -0.00050
 165        3PX         0.00010  -0.00027  -0.00045   0.00057   0.00020
 166        3PY        -0.00024  -0.00012  -0.00204   0.00013   0.00004
 167        3PZ        -0.00005  -0.00031  -0.00138   0.00021  -0.00041
 168        4XX         0.00015   0.00020   0.00016  -0.00011   0.00010
 169        4YY         0.00012   0.00008   0.00064   0.00006   0.00011
 170        4ZZ         0.00015   0.00002   0.00038   0.00011   0.00004
 171        4XY         0.00002  -0.00001   0.00006   0.00002   0.00004
 172        4XZ        -0.00000  -0.00000   0.00005   0.00002  -0.00002
 173        4YZ        -0.00001   0.00001   0.00032  -0.00003  -0.00003
 174 14  O  1S          0.00006  -0.00022   0.00004   0.00026   0.00054
 175        2S          0.00025   0.00022   0.00018  -0.00005  -0.00124
 176        2PX         0.00002   0.00005   0.00003  -0.00011  -0.00028
 177        2PY         0.00003   0.00006  -0.00004   0.00002  -0.00033
 178        2PZ        -0.00000   0.00068   0.00002  -0.00036  -0.00119
 179        3S         -0.00126  -0.00150  -0.00093   0.00005   0.00543
 180        3PX        -0.00012   0.00006  -0.00029   0.00049   0.00087
 181        3PY        -0.00031  -0.00005   0.00014  -0.00038   0.00124
 182        3PZ        -0.00011  -0.00223  -0.00017   0.00094   0.00363
 183        4XX         0.00014  -0.00005   0.00012   0.00029  -0.00015
 184        4YY         0.00016  -0.00009   0.00008   0.00010  -0.00007
 185        4ZZ         0.00019   0.00052   0.00012  -0.00009  -0.00106
 186        4XY        -0.00001   0.00005   0.00000  -0.00000  -0.00004
 187        4XZ         0.00001   0.00024  -0.00003   0.00021  -0.00026
 188        4YZ        -0.00004   0.00017   0.00002  -0.00035  -0.00003
 189 15  H  1S         -0.00007  -0.00022   0.00009  -0.00016  -0.00008
 190        2S          0.00250   0.00038   0.00058   0.00050  -0.00084
 191        3PX        -0.00018   0.00003  -0.00002  -0.00004   0.00002
 192        3PY         0.00007  -0.00005   0.00002  -0.00014   0.00007
 193        3PZ         0.00009   0.00004  -0.00006   0.00001   0.00001
 194 16  H  1S         -0.00003   0.00055  -0.00002   0.00075  -0.00061
 195        2S         -0.00054   0.00135   0.00021   0.00131  -0.00172
 196        3PX        -0.00006   0.00013   0.00003   0.00022  -0.00008
 197        3PY         0.00004  -0.00017   0.00000  -0.00021   0.00005
 198        3PZ        -0.00005   0.00008  -0.00002   0.00004  -0.00008
                          16        17        18        19        20
                           O         O         O         O         O
     Eigenvalues --    -4.69194  -4.68511  -4.68463  -4.68435  -0.93966
   1 1   C  1S         -0.00002   0.00001  -0.00004  -0.00006  -0.01675
   2        2S         -0.00030   0.00023  -0.00018  -0.00043   0.03009
   3        2PX        -0.00003   0.00004   0.00002   0.00007   0.00190
   4        2PY        -0.00019   0.00015   0.00003  -0.00017  -0.01227
   5        2PZ         0.00013  -0.00011  -0.00000   0.00013   0.01762
   6        3S          0.00209  -0.00170   0.00031   0.00393   0.01955
   7        3PX        -0.00150  -0.00172   0.00101   0.00042  -0.00535
   8        3PY        -0.00165   0.00176   0.00004  -0.00156  -0.00654
   9        3PZ         0.00114  -0.00023   0.00076   0.00207   0.00819
  10        4XX         0.00004  -0.00006  -0.00000   0.00000  -0.00119
  11        4YY         0.00022  -0.00027  -0.00012   0.00000   0.00085
  12        4ZZ         0.00010   0.00001   0.00003   0.00012   0.00197
  13        4XY         0.00019   0.00018  -0.00010  -0.00015  -0.00021
  14        4XZ        -0.00018  -0.00012   0.00013   0.00012   0.00017
  15        4YZ        -0.00013   0.00003  -0.00007  -0.00017  -0.00341
  16 2   H  1S         -0.00014   0.00022   0.00002  -0.00009   0.00474
  17        2S          0.00063  -0.00043   0.00027   0.00052   0.00336
  18        3PX         0.00003   0.00002  -0.00008  -0.00002   0.00020
  19        3PY        -0.00003   0.00002   0.00005   0.00005   0.00033
  20        3PZ         0.00004  -0.00006  -0.00002  -0.00001   0.00054
  21 3   H  1S          0.00005   0.00021  -0.00015  -0.00026   0.00766
  22        2S          0.00055  -0.00036  -0.00010   0.00084   0.00863
  23        3PX         0.00003   0.00002  -0.00001  -0.00001  -0.00082
  24        3PY         0.00007   0.00005  -0.00005  -0.00015  -0.00099
  25        3PZ        -0.00008  -0.00006   0.00004   0.00001   0.00043
  26 4   C  1S          0.00010  -0.00011   0.00012   0.00007  -0.07085
  27        2S          0.00187  -0.00140   0.00144   0.00044   0.12967
  28        2PX        -0.00004  -0.00003   0.00005   0.00031   0.00581
  29        2PY         0.00010   0.00001  -0.00000   0.00051   0.02663
  30        2PZ        -0.00011   0.00024   0.00018  -0.00006   0.08266
  31        3S         -0.00796   0.00500  -0.00568  -0.00313   0.06284
  32        3PX         0.00467   0.00275  -0.00362  -0.00285   0.00297
  33        3PY         0.00035  -0.00081   0.00036  -0.00533  -0.01620
  34        3PZ        -0.00045  -0.00266  -0.00380   0.00076  -0.01119
  35        4XX        -0.00024   0.00032  -0.00032  -0.00006  -0.00367
  36        4YY         0.00010  -0.00007   0.00014   0.00019  -0.00430
  37        4ZZ         0.00009  -0.00027  -0.00006  -0.00010   0.01349
  38        4XY        -0.00051  -0.00038   0.00044  -0.00007   0.00042
  39        4XZ        -0.00005  -0.00029  -0.00024   0.00003   0.00263
  40        4YZ        -0.00005   0.00001  -0.00012   0.00014   0.00716
  41 5   O  1S         -0.00012   0.00003  -0.00009  -0.00003  -0.18296
  42        2S         -0.00061   0.00013  -0.00055  -0.00017   0.39526
  43        2PX         0.00015   0.00011   0.00005   0.00000   0.04979
  44        2PY         0.00001  -0.00001  -0.00004  -0.00012  -0.06977
  45        2PZ         0.00002  -0.00001   0.00004   0.00000  -0.04836
  46        3S          0.00339  -0.00042   0.00377   0.00145   0.41008
  47        3PX        -0.00166  -0.00093   0.00039   0.00025   0.01513
  48        3PY        -0.00062   0.00018  -0.00074   0.00076  -0.02899
  49        3PZ        -0.00146   0.00007  -0.00188  -0.00084  -0.03324
  50        4XX        -0.00033   0.00004  -0.00024  -0.00003  -0.00684
  51        4YY        -0.00028   0.00008  -0.00010  -0.00024  -0.00517
  52        4ZZ        -0.00019   0.00010  -0.00006   0.00010   0.00404
  53        4XY         0.00012   0.00009  -0.00000   0.00004  -0.00378
  54        4XZ         0.00023   0.00016  -0.00015  -0.00015   0.00074
  55        4YZ         0.00014   0.00001   0.00015  -0.00013   0.00611
  56 6   H  1S         -0.00002   0.00028   0.00004   0.00011   0.12174
  57        2S          0.00097   0.00018   0.00174   0.00010   0.01538
  58        3PX        -0.00008   0.00009   0.00008  -0.00001  -0.01404
  59        3PY         0.00008  -0.00001  -0.00015   0.00004   0.01107
  60        3PZ        -0.00005  -0.00003  -0.00000   0.00004  -0.00933
  61 7   P  1S         -0.00000   0.00028  -0.00002  -0.00008   0.01255
  62        2S         -0.00012  -0.00118   0.00010   0.00026  -0.05800
  63        2PX        -0.00072   0.72675  -0.49811   0.45566   0.00224
[...]
  17         O                -4.685116         14.714354
  18         O                -4.684640         14.708754
  19         O                -4.684345         14.707638
  20         O                -0.939114          2.403988
  21         O                -0.904694          2.539059
  22         O                -0.886466          2.620787
  23         O                -0.844359          2.781703
  24         O                -0.825511          2.883696
  25         O                -0.816286          2.862869
  26         O                -0.811514          2.872130
  27         O                -0.673588          1.502895
  28         O                -0.538859          1.733942
  29         O                -0.453444          2.033891
  30         O                -0.434549          1.854301
  31         O                -0.388051          1.961905
  32         O                -0.372885          1.844375
  33         O                -0.347644          1.803586
  34         O                -0.342643          1.815992
  35         O                -0.330789          1.413334
  36         O                -0.312874          1.718093
  37         O                -0.298890          2.118163
  38         O                -0.294896          2.251061
  39         O                -0.289240          2.152867
  40         O                -0.274752          2.178336
  41         O                -0.268768          2.097347
  42         O                -0.234742          2.104013
  43         O                -0.217317          2.064777
  44         O                -0.214263          2.030448
  45         O                -0.213005          2.047309
  46         O                -0.200897          2.070598
  47         O                -0.189202          2.196486
  48         O                -0.182369          2.194151
  49         O                -0.176157          2.180714
  50         O                -0.173730          2.296443
  51         O                -0.171941          2.276682
  52         O                -0.152222          2.196395
  53         O                -0.146285          2.359306
  54         V                 0.145086          1.286737
  55         V                 0.168207          1.967969
  56         V                 0.178851          1.619901
  57         V                 0.180688          1.596640
  58         V                 0.203276          1.266810
  59         V                 0.215114          1.307141
  60         V                 0.232552          2.170866
  61         V                 0.243137          2.296964
  62         V                 0.258756          1.589905
  63         V                 0.265566          2.006633
  64         V                 0.278476          1.961066
  65         V                 0.290844          1.810798
  66         V                 0.308152          1.690631
  67         V                 0.325418          2.345270
  68         V                 0.338293          1.895272
  69         V                 0.410628          3.113290
  70         V                 0.418178          2.725622
  71         V                 0.444742          2.487601
  72         V                 0.479420          2.502513
  73         V                 0.490423          2.902917
  74         V                 0.492148          2.538376
  75         V                 0.518176          2.151395
  76         V                 0.547119          2.400033
  77         V                 0.623633          2.322432
  78         V                 0.649127          2.047967
  79         V                 0.656071          2.586091
  80         V                 0.722167          2.642558
  81         V                 0.730804          2.486559
  82         V                 0.738145          2.437086
  83         V                 0.786746          2.459518
  84         V                 0.803143          2.429221
  85         V                 0.851450          2.353835
  86         V                 0.866549          2.565602
  87         V                 0.881100          2.742394
  88         V                 0.889929          2.615941
  89         V                 0.894925          2.660577
  90         V                 0.911808          2.665102
  91         V                 0.918852          2.526017
  92         V                 0.931924          2.584028
  93         V                 0.969209          2.615479
  94         V                 0.984598          2.552600
  95         V                 1.003131          2.688878
  96         V                 1.012505          2.709672
  97         V                 1.020187          2.767298
  98         V                 1.045407          3.189199
  99         V                 1.072559          3.203569
 100         V                 1.078005          3.213585
 101         V                 1.083131          3.045792
 102         V                 1.104076          3.208445
 103         V                 1.107615          2.976098
 104         V                 1.127169          3.369254
 105         V                 1.134664          3.247223
 106         V                 1.138224          3.207756
 107         V                 1.142819          3.396327
 108         V                 1.157678          3.054769
 109         V                 1.164507          3.348436
 110         V                 1.188199          3.424916
 111         V                 1.213493          3.149972
 112         V                 1.237333          3.316491
 113         V                 1.256477          3.923572
 114         V                 1.271156          3.954818
 115         V                 1.289698          3.809783
 116         V                 1.301262          4.067715
 117         V                 1.310848          3.565535
 118         V                 1.325279          3.342517
 119         V                 1.401968          3.132577
 120         V                 1.425058          2.923243
 121         V                 1.452613          2.732115
 122         V                 1.509142          2.745955
 123         V                 1.514514          2.789663
 124         V                 1.528417          2.734724
 125         V                 1.593445          2.840880
 126         V                 1.621328          2.739200
 127         V                 1.679517          2.685814
 128         V                 1.691702          2.776365
 129         V                 1.725158          2.790685
 130         V                 1.737680          2.770393
 131         V                 1.788024          2.862850
 132         V                 1.835059          2.865750
 133         V                 1.845289          2.890960
 134         V                 1.876658          2.908028
 135         V                 1.897779          2.925949
 136         V                 1.905967          2.919907
 137         V                 1.912424          2.898058
 138         V                 1.914980          2.849844
 139         V                 1.925590          2.870317
 140         V                 1.930608          2.908607
 141         V                 1.946190          2.899343
 142         V                 1.948234          2.940298
 143         V                 1.960549          2.942057
 144         V                 1.966300          2.996463
 145         V                 1.976918          3.153426
 146         V                 1.993071          3.062157
 147         V                 2.009633          3.293401
 148         V                 2.078826          3.268121
 149         V                 2.084541          3.227181
 150         V                 2.088204          3.395525
 151         V                 2.107363          3.068088
 152         V                 2.119787          3.494835
 153         V                 2.128889          3.316662
 154         V                 2.145374          3.255164
 155         V                 2.186813          3.294990
 156         V                 2.208059          3.370956
 157         V                 2.228745          3.464533
 158         V                 2.235878          3.471438
 159         V                 2.280465          3.419268
 160         V                 2.339700          3.554293
 161         V                 2.371011          3.533515
 162         V                 2.382609          3.577969
 163         V                 2.409854          3.550500
 164         V                 2.497189          3.789493
 165         V                 2.508051          3.763922
 166         V                 2.539707          3.772120
 167         V                 2.568252          3.616275
 168         V                 2.603909          3.905363
 169         V                 2.616982          4.290115
 170         V                 2.726723          4.122180
 171         V                 2.751486          4.016758
 172         V                 2.785517          3.617223
 173         V                 2.813925          4.076335
 174         V                 2.835739          3.993860
 175         V                 2.871981          4.157076
 176         V                 2.882159          4.406972
 177         V                 2.893859          4.777465
 178         V                 2.918851          4.647633
 179         V                 2.927104          4.625867
 180         V                 2.939483          4.031782
 181         V                 3.040454          4.382541
 182         V                 3.080062          4.488929
 183         V                 3.273940          4.944826
 184         V                 3.500634          5.169367
 185         V                 3.505808          5.436467
 186         V                 3.528762          6.553897
 187         V                 3.556858          6.992113
 188         V                 3.620919          9.223736
 189         V                 3.680443         10.038913
 190         V                 3.859098         10.300602
 191         V                 3.861430         10.100797
 192         V                 3.962703          9.900470
 193         V                 3.997466         10.270364
 194         V                 4.086692         10.801367
 195         V                 4.152136         10.446207
 196         V                 4.276863         10.786798
 197         V                 4.466075         10.564352
 198         V                 4.651004         10.329901
 Total kinetic energy from orbitals= 1.281671621647D+03
                          Isotropic Fermi Contact Couplings
        Atom                 a.u.       MegaHertz       Gauss      10(-4) cm-1
     1  C(13)              0.10990     123.55151      44.08625      41.21235
     2  H(1)              -0.00062      -2.79357      -0.99681      -0.93183
     3  H(1)              -0.00036      -1.60604      -0.57307      -0.53572
     4  C(13)              0.01722      19.35825       6.90751       6.45722
     5  O(17)              0.01263      -7.65348      -2.73095      -2.55293
     6  H(1)               0.00038       1.69117       0.60345       0.56411
     7  P(31)              0.00027       0.48570       0.17331       0.16201
     8  P(31)              0.06502     117.76472      42.02138      39.28208
     9  O(17)              0.00486      -2.94474      -1.05076      -0.98226
    10  O(17)              0.07065     -42.82645     -15.28154     -14.28537
    11  O(17)              0.90729    -549.99494    -196.25187    -183.45857
    12  O(17)              0.01701     -10.31296      -3.67992      -3.44003
    13  O(17)              0.00437      -2.65079      -0.94587      -0.88421
    14  O(17)              0.07261     -44.01528     -15.70575     -14.68192
    15  H(1)              -0.00195      -8.73271      -3.11605      -2.91292
    16  H(1)               0.01028      45.95320      16.39724      15.32834
 --------------------------------------------------------
       Center         ----  Spin Dipole Couplings  ----
                      3XX-RR        3YY-RR        3ZZ-RR
 --------------------------------------------------------
     1   Atom        0.014850      0.003773     -0.018623
     2   Atom        0.001009     -0.003537      0.002528
     3   Atom        0.009036     -0.003936     -0.005100
     4   Atom        0.004502      0.008048     -0.012550
     5   Atom        0.002259     -0.001143     -0.001115
     6   Atom        0.001438     -0.001669      0.000230
     7   Atom       -0.000156      0.000749     -0.000593
     8   Atom       -0.018594      0.004747      0.013848
     9   Atom       -0.000413      0.001236     -0.000823
    10   Atom       -0.007529      0.034404     -0.026875
    11   Atom       -0.185022     -0.146010      0.331032
    12   Atom        0.013618     -0.007182     -0.006436
    13   Atom        0.000569      0.000117     -0.000686
    14   Atom        0.016204      0.005655     -0.021859
    15   Atom        0.021473     -0.007876     -0.013597
    16   Atom       -0.020733     -0.028292      0.049024
 --------------------------------------------------------
                        XY            XZ            YZ
 --------------------------------------------------------
     1   Atom       -0.021154      0.009420     -0.010047
     2   Atom       -0.000752     -0.005392      0.005845
     3   Atom        0.002037      0.001329     -0.000173
     4   Atom        0.013339      0.004594      0.002757
     5   Atom        0.000607      0.003037      0.000786
     6   Atom       -0.000088      0.002016     -0.000561
     7   Atom        0.000984      0.000475     -0.000274
     8   Atom       -0.019834     -0.016969      0.033415
     9   Atom        0.000599      0.000495     -0.001587
    10   Atom       -0.045659      0.012790     -0.026338
    11   Atom       -0.032996      0.111772     -0.171694
    12   Atom       -0.002439     -0.002501      0.000754
    13   Atom       -0.000550     -0.000509     -0.000109
    14   Atom       -0.044036     -0.024194      0.025101
    15   Atom       -0.002181     -0.007419      0.003969
    16   Atom       -0.023872      0.058453     -0.051459
 --------------------------------------------------------


 ---------------------------------------------------------------------------------
              Anisotropic Spin Dipole Couplings in Principal Axis System
 ---------------------------------------------------------------------------------

       Atom             a.u.   MegaHertz   Gauss  10(-4) cm-1        Axes

              Baa    -0.0225    -3.026    -1.080    -1.009 -0.0625  0.3117  0.9481
     1 C(13)  Bbb    -0.0121    -1.625    -0.580    -0.542  0.6471  0.7359 -0.1992
              Bcc     0.0347     4.650     1.659     1.551  0.7598 -0.6011  0.2477
 
              Baa    -0.0078    -4.140    -1.477    -1.381 -0.2944  0.7564 -0.5841
     2 H(1)   Bbb    -0.0015    -0.785    -0.280    -0.262  0.7941  0.5337  0.2908
              Bcc     0.0092     4.924     1.757     1.643 -0.5317  0.3783  0.7578
 
              Baa    -0.0053    -2.849    -1.017    -0.950 -0.1305  0.3057  0.9431
     3 H(1)   Bbb    -0.0041    -2.199    -0.785    -0.734 -0.1132  0.9404 -0.3205
              Bcc     0.0095     5.048     1.801     1.684  0.9850  0.1486  0.0881
 
              Baa    -0.0137    -1.843    -0.658    -0.615 -0.2769  0.0481  0.9597
     4 C(13)  Bbb    -0.0068    -0.910    -0.325    -0.304  0.7003 -0.6737  0.2358
              Bcc     0.0205     2.754     0.983     0.918  0.6579  0.7374  0.1529
 
              Baa    -0.0030     0.216     0.077     0.072 -0.4719 -0.2102  0.8562
     5 O(17)  Bbb    -0.0012     0.089     0.032     0.030 -0.2525  0.9627  0.0972
              Bcc     0.0042    -0.304    -0.109    -0.101  0.8447  0.1703  0.5073
 
              Baa    -0.0019    -1.035    -0.369    -0.345 -0.2473  0.8572  0.4517
     6 H(1)   Bbb    -0.0010    -0.553    -0.197    -0.184 -0.5551 -0.5074  0.6591
              Bcc     0.0030     1.587     0.566     0.529  0.7942 -0.0878  0.6013
 
              Baa    -0.0012    -0.269    -0.096    -0.090  0.6483 -0.4080 -0.6429
     7 P(31)  Bbb    -0.0001    -0.029    -0.010    -0.010  0.5343 -0.3578  0.7659
              Bcc     0.0014     0.298     0.106     0.099  0.5425  0.8399  0.0140
 
              Baa    -0.0302    -6.526    -2.329    -2.177  0.8019  0.5825 -0.1330
     8 P(31)  Bbb    -0.0222    -4.810    -1.716    -1.604  0.4896 -0.5130  0.7051
              Bcc     0.0524    11.336     4.045     3.781 -0.3425  0.6305  0.6966
 
              Baa    -0.0020     0.146     0.052     0.049 -0.4149  0.4598  0.7851
     9 O(17)  Bbb    -0.0001     0.009     0.003     0.003  0.9020  0.0946  0.4213
              Bcc     0.0021    -0.154    -0.055    -0.051  0.1194  0.8830 -0.4540
 
              Baa    -0.0395     2.858     1.020     0.953  0.5620  0.5632  0.6058
    10 O(17)  Bbb    -0.0327     2.368     0.845     0.790 -0.6509 -0.1508  0.7441
              Bcc     0.0722    -5.226    -1.865    -1.743 -0.5104  0.8125 -0.2818
 
              Baa    -0.2089    15.118     5.395     5.043  0.9183 -0.2805 -0.2793
    11 O(17)  Bbb    -0.2003    14.494     5.172     4.835  0.3459  0.9117  0.2218
              Bcc     0.4092   -29.612   -10.566    -9.878  0.1924 -0.3003  0.9342
 
              Baa    -0.0077     0.556     0.199     0.186  0.0514  0.8978 -0.4373
    12 O(17)  Bbb    -0.0065     0.473     0.169     0.158  0.1620  0.4246  0.8908
              Bcc     0.0142    -1.029    -0.367    -0.343  0.9855 -0.1167 -0.1236
 
              Baa    -0.0010     0.069     0.025     0.023  0.3966  0.2924  0.8702
    13 O(17)  Bbb    -0.0001     0.005     0.002     0.002  0.3600  0.8224 -0.4405
              Bcc     0.0010    -0.074    -0.026    -0.025  0.8445 -0.4879 -0.2209
 
              Baa    -0.0370     2.678     0.956     0.893 -0.1688 -0.6234  0.7635
    14 O(17)  Bbb    -0.0316     2.289     0.817     0.763  0.7021  0.4676  0.5371
              Bcc     0.0686    -4.967    -1.772    -1.657  0.6918 -0.6267 -0.3588
 
              Baa    -0.0165    -8.814    -3.145    -2.940  0.1563 -0.3793  0.9120
    15 H(1)   Bbb    -0.0067    -3.594    -1.283    -1.199  0.1644  0.9204  0.3547
              Bcc     0.0233    12.408     4.428     4.139  0.9739 -0.0945 -0.2062
 
              Baa    -0.0574   -30.626   -10.928   -10.216 -0.5603  0.5821  0.5892
    16 H(1)   Bbb    -0.0486   -25.948    -9.259    -8.655  0.6985  0.7144 -0.0416
              Bcc     0.1060    56.574    20.187    18.871  0.4452 -0.3882  0.8069
 

 ---------------------------------------------------------------------------------


 Test job not archived.
 1\1\GINC-BATAGIN2\SP\UB3LYP\6-31G(d,p)\C2H5O7P2(4-,2)\ORISON\09-Feb-20
 21\0\\#t B3LYP/6-31G(d,p) scrf=(solvent=water) # Gfinput IOP(6/7=3) Po
 p=hirshfeld Density Test # Units(Ang,Deg)\\eti-3dp-opt-g09.log\\-4,2\C
 ,0,-0.07675,1.85793,-0.84048\H,0,-0.17799,1.53203,-1.88011\H,0,0.83484
 ,2.45444,-0.75806\C,0,0.01146,0.65753,0.10442\O,0,0.05161,1.1605,1.465
 16\H,0,0.76695,0.57192,1.83095\P,0,1.6892,-0.2733,-0.09639\P,0,-1.5226
 6,-0.38455,-0.06458\O,0,2.00059,-0.53782,1.41531\O,0,-1.56086,-1.5035,
 0.96005\O,0,-2.72143,0.71262,0.42851\O,0,2.65623,0.73981,-0.74393\O,0,
 1.48873,-1.55721,-0.92266\O,0,-1.84917,-0.67913,-1.52412\H,0,-0.94528,
 2.48389,-0.59895\H,0,-3.11049,1.05044,-0.38959\\Version=EM64L-G16RevA.
 03\State=2-A\HF=-1288.9422178\S2=0.75076\S2-1=0.\S2A=0.75\RMSD=5.042e-
 09\Dipole=1.7146944,1.2906937,0.7008491\Quadrupole=-32.6397541,14.3067
 688,18.3329853,4.8095564,-1.2225998,-0.0815737\PG=C01 [X(C2H5O7P2)]\\@


 PICNIC:  A SNACK IN THE GRASS.
 Job cpu time:       0 days  0 hours  8 minutes 33.8 seconds.
 Elapsed time:       0 days  0 hours  1 minutes  4.4 seconds.
 File lengths (MBytes):  RWF=     86 Int=      0 D2E=      0 Chk=      4 Scr=      1
 Normal termination of Gaussian 16 at Tue Feb  9 22:23:41 2021.
