 Entering Gaussian System, Link 0=g16
 Input=eti-3dp_cation_scf_g09.com
 Output=eti-3dp_cation_scf_g09.log
 Initial command:
 /usr/local//g16/l1.exe "/home/orison/scrgauss/Gau-23818.inp" -scrdir="/home/orison/scrgauss/"
 Entering Link 1 = /usr/local//g16/l1.exe PID=     23820.
  
 Copyright (c) 1988,1990,1992,1993,1995,1998,2003,2009,2016,
            Gaussian, Inc.  All Rights Reserved.
  
 This is part of the Gaussian(R) 16 program.  It is based on
 the Gaussian(R) 09 system (copyright 2009, Gaussian, Inc.),
 the Gaussian(R) 03 system (copyright 2003, Gaussian, Inc.),
 the Gaussian(R) 98 system (copyright 1998, Gaussian, Inc.),
 the Gaussian(R) 94 system (copyright 1995, Gaussian, Inc.),
 the Gaussian 92(TM) system (copyright 1992, Gaussian, Inc.),
 the Gaussian 90(TM) system (copyright 1990, Gaussian, Inc.),
 the Gaussian 88(TM) system (copyright 1988, Gaussian, Inc.),
 the Gaussian 86(TM) system (copyright 1986, Carnegie Mellon
 University), and the Gaussian 82(TM) system (copyright 1983,
 Carnegie Mellon University). Gaussian is a federally registered
 trademark of Gaussian, Inc.
  
 This software contains proprietary and confidential information,
 including trade secrets, belonging to Gaussian, Inc.
  
 This software is provided under written license and may be
 used, copied, transmitted, or stored only in accord with that
 written license.
  
 The following legend is applicable only to US Government
 contracts under FAR:
  
                    RESTRICTED RIGHTS LEGEND
  
 Use, reproduction and disclosure by the US Government is
 subject to restrictions as set forth in subparagraphs (a)
 and (c) of the Commercial Computer Software - Restricted
 Rights clause in FAR 52.227-19.
  
 Gaussian, Inc.
 340 Quinnipiac St., Bldg. 40, Wallingford CT 06492
  
  
 ---------------------------------------------------------------
 Warning -- This program may not be used in any manner that
 competes with the business of Gaussian, Inc. or will provide
 assistance to any competitor of Gaussian, Inc.  The licensee
 of this program is prohibited from giving any competitor of
 Gaussian, Inc. access to this program.  By using this program,
 the user acknowledges that Gaussian, Inc. is engaged in the
 business of creating and licensing software in the field of
 computational chemistry and represents and warrants to the
 licensee that it is not a competitor of Gaussian, Inc. and that
 it will not use this program in any manner prohibited above.
 ---------------------------------------------------------------
  

 Cite this work as:
 Gaussian 16, Revision A.03,
 M. J. Frisch, G. W. Trucks, H. B. Schlegel, G. E. Scuseria, 
 M. A. Robb, J. R. Cheeseman, G. Scalmani, V. Barone, 
 G. A. Petersson, H. Nakatsuji, X. Li, M. Caricato, A. V. Marenich, 
 J. Bloino, B. G. Janesko, R. Gomperts, B. Mennucci, H. P. Hratchian, 
 J. V. Ortiz, A. F. Izmaylov, J. L. Sonnenberg, D. Williams-Young, 
 F. Ding, F. Lipparini, F. Egidi, J. Goings, B. Peng, A. Petrone, 
 T. Henderson, D. Ranasinghe, V. G. Zakrzewski, J. Gao, N. Rega, 
 G. Zheng, W. Liang, M. Hada, M. Ehara, K. Toyota, R. Fukuda, 
 J. Hasegawa, M. Ishida, T. Nakajima, Y. Honda, O. Kitao, H. Nakai, 
 T. Vreven, K. Throssell, J. A. Montgomery, Jr., J. E. Peralta, 
 F. Ogliaro, M. J. Bearpark, J. J. Heyd, E. N. Brothers, K. N. Kudin, 
 V. N. Staroverov, T. A. Keith, R. Kobayashi, J. Normand, 
 K. Raghavachari, A. P. Rendell, J. C. Burant, S. S. Iyengar, 
 J. Tomasi, M. Cossi, J. M. Millam, M. Klene, C. Adamo, R. Cammi, 
 J. W. Ochterski, R. L. Martin, K. Morokuma, O. Farkas, 
 J. B. Foresman, and D. J. Fox, Gaussian, Inc., Wallingford CT, 2016.
 
 ******************************************
 Gaussian 16:  EM64L-G16RevA.03 25-Dec-2016
                 9-Feb-2021 
 ******************************************
 %nproc=8
 Will use up to    8 processors via shared memory.
 %Mem=4GB
 ----------------------------------------------------------------------
 #t B3LYP/6-31G(d,p) scrf=(solvent=water) # Gfinput IOP(6/7=3) Pop=hirs
 hfeld Density Test # Units(Ang,Deg)
 ----------------------------------------------------------------------
 -------------------
 eti-3dp-opt-g09.log
 -------------------
 Symbolic Z-matrix:
 Charge = -2 Multiplicity = 2
 C                    -0.07675   1.85793  -0.84048 
 H                    -0.17799   1.53203  -1.88011 
 H                     0.83484   2.45444  -0.75806 
 C                     0.01146   0.65753   0.10442 
 O                     0.05161   1.1605    1.46516 
 H                     0.76695   0.57192   1.83095 
 P                     1.6892   -0.2733   -0.09639 
 P                    -1.52266  -0.38455  -0.06458 
 O                     2.00059  -0.53782   1.41531 
 O                    -1.56086  -1.5035    0.96005 
 O                    -2.72143   0.71262   0.42851 
 O                     2.65623   0.73981  -0.74393 
 O                     1.48873  -1.55721  -0.92266 
 O                    -1.84917  -0.67913  -1.52412 
 H                    -0.94528   2.48389  -0.59895 
 H                    -3.11049   1.05044  -0.38959 
 
                    Distance matrix (angstroms):
                    1          2          3          4          5
     1  C    0.000000
     2  H    1.094208   0.000000
     3  H    1.092526   1.770780   0.000000
     4  C    1.530221   2.176925   2.156551   0.000000
     5  O    2.412231   3.373660   2.688947   1.451277   0.000000
     6  H    3.082562   3.947998   3.201791   1.886531   0.995962
     7  P    2.866076   3.150757   2.933991   1.929140   2.678791
     8  P    2.778739   2.962696   3.754808   1.862261   2.684327
     9  O    3.891471   4.459852   3.877645   2.665320   2.585594
    10  O    4.091907   4.381014   4.935238   2.806126   3.154694
    11  O    3.149032   3.531324   4.133877   2.752591   2.994159
    12  O    2.954436   3.154571   2.501523   2.778718   3.441091
    13  O    3.757747   3.638416   4.067923   2.853470   3.892678
    14  O    3.169465   2.794423   4.196429   2.810827   3.991616
    15  H    1.097500   1.770916   1.787459   2.178456   2.646828
    16  H    3.171580   3.324626   4.203881   3.185121   3.667572
                    6          7          8          9         10
     6  H    0.000000
     7  P    2.297734   0.000000
     8  P    3.122528   3.213944   0.000000
     9  O    1.710598   1.565941   3.824507   0.000000
    10  O    3.237983   3.632127   1.517687   3.718027   0.000000
    11  O    3.762370   4.549859   1.698225   4.983457   2.557469
    12  O    3.198058   1.542999   4.380505   2.593168   5.071473
    13  O    3.554790   1.539914   3.343636   2.601396   3.584338
    14  O    4.434603   3.837079   1.524350   4.845706   2.633213
    15  H    3.534371   3.846446   2.974368   4.676123   4.325355
    16  H    4.493809   4.987512   2.164724   5.648307   3.278032
                   11         12         13         14         15
    11  O    0.000000
    12  O    5.504051   0.000000
    13  O    4.970235   2.582886   0.000000
    14  O    2.551582   4.787558   3.503478   0.000000
    15  H    2.710679   4.004211   4.728603   3.417258   0.000000
    16  H    0.966839   5.785940   5.313834   2.422705   2.605138
                   16
    16  H    0.000000
 Framework group  C1[X(C2H5O7P2)]
 Deg. of freedom    42
                         Standard orientation:                         
 ---------------------------------------------------------------------
 Center     Atomic      Atomic             Coordinates (Angstroms)
 Number     Number       Type             X           Y           Z
 ---------------------------------------------------------------------
      1          6           0       -0.076754    1.857931   -0.840479
      2          1           0       -0.177993    1.532031   -1.880109
      3          1           0        0.834835    2.454443   -0.758059
      4          6           0        0.011459    0.657531    0.104421
      5          8           0        0.051608    1.160501    1.465161
      6          1           0        0.766949    0.571923    1.830951
      7         15           0        1.689201   -0.273295   -0.096389
      8         15           0       -1.522659   -0.384552   -0.064579
      9          8           0        2.000591   -0.537815    1.415311
     10          8           0       -1.560857   -1.503502    0.960051
     11          8           0       -2.721431    0.712615    0.428511
     12          8           0        2.656229    0.739817   -0.743929
     13          8           0        1.488733   -1.557206   -0.922659
     14          8           0       -1.849168   -0.679133   -1.524119
     15          1           0       -0.945285    2.483889   -0.598949
     16          1           0       -3.110492    1.050435   -0.389589
 ---------------------------------------------------------------------
 Rotational constants (GHZ):           1.4225194           0.6680304           0.6379149
 AO basis set in the form of general basis input (Overlap normalization):
      1 0
 S   6 1.00       0.000000000000
      0.3047524880D+04  0.1834737132D-02
      0.4573695180D+03  0.1403732281D-01
      0.1039486850D+03  0.6884262226D-01
      0.2921015530D+02  0.2321844432D+00
      0.9286662960D+01  0.4679413484D+00
      0.3163926960D+01  0.3623119853D+00
 SP   3 1.00       0.000000000000
      0.7868272350D+01 -0.1193324198D+00  0.6899906659D-01
      0.1881288540D+01 -0.1608541517D+00  0.3164239610D+00
      0.5442492580D+00  0.1143456438D+01  0.7443082909D+00
 SP   1 1.00       0.000000000000
      0.1687144782D+00  0.1000000000D+01  0.1000000000D+01
 D   1 1.00       0.000000000000
      0.8000000000D+00  0.1000000000D+01
 ****
      2 0
 S   3 1.00       0.000000000000
      0.1873113696D+02  0.3349460434D-01
      0.2825394365D+01  0.2347269535D+00
      0.6401216923D+00  0.8137573261D+00
 S   1 1.00       0.000000000000
      0.1612777588D+00  0.1000000000D+01
 P   1 1.00       0.000000000000
      0.1100000000D+01  0.1000000000D+01
 ****
      3 0
 S   3 1.00       0.000000000000
      0.1873113696D+02  0.3349460434D-01
      0.2825394365D+01  0.2347269535D+00
      0.6401216923D+00  0.8137573261D+00
 S   1 1.00       0.000000000000
      0.1612777588D+00  0.1000000000D+01
 P   1 1.00       0.000000000000
      0.1100000000D+01  0.1000000000D+01
 ****
      4 0
 S   6 1.00       0.000000000000
      0.3047524880D+04  0.1834737132D-02
      0.4573695180D+03  0.1403732281D-01
      0.1039486850D+03  0.6884262226D-01
      0.2921015530D+02  0.2321844432D+00
      0.9286662960D+01  0.4679413484D+00
      0.3163926960D+01  0.3623119853D+00
 SP   3 1.00       0.000000000000
      0.7868272350D+01 -0.1193324198D+00  0.6899906659D-01
      0.1881288540D+01 -0.1608541517D+00  0.3164239610D+00
      0.5442492580D+00  0.1143456438D+01  0.7443082909D+00
 SP   1 1.00       0.000000000000
      0.1687144782D+00  0.1000000000D+01  0.1000000000D+01
 D   1 1.00       0.000000000000
      0.8000000000D+00  0.1000000000D+01
 ****
      5 0
 S   6 1.00       0.000000000000
      0.5484671660D+04  0.1831074430D-02
      0.8252349460D+03  0.1395017220D-01
      0.1880469580D+03  0.6844507810D-01
      0.5296450000D+02  0.2327143360D+00
      0.1689757040D+02  0.4701928980D+00
      0.5799635340D+01  0.3585208530D+00
 SP   3 1.00       0.000000000000
      0.1553961625D+02 -0.1107775495D+00  0.7087426823D-01
      0.3599933586D+01 -0.1480262627D+00  0.3397528391D+00
      0.1013761750D+01  0.1130767015D+01  0.7271585773D+00
 SP   1 1.00       0.000000000000
      0.2700058226D+00  0.1000000000D+01  0.1000000000D+01
 D   1 1.00       0.000000000000
      0.8000000000D+00  0.1000000000D+01
 ****
      6 0
 S   3 1.00       0.000000000000
      0.1873113696D+02  0.3349460434D-01
      0.2825394365D+01  0.2347269535D+00
      0.6401216923D+00  0.8137573261D+00
 S   1 1.00       0.000000000000
      0.1612777588D+00  0.1000000000D+01
 P   1 1.00       0.000000000000
      0.1100000000D+01  0.1000000000D+01
 ****
      7 0
 S   6 1.00       0.000000000000
      0.1941330000D+05  0.1851598923D-02
      0.2909420000D+04  0.1420619174D-01
      0.6613640000D+03  0.6999945928D-01
      0.1857590000D+03  0.2400788603D+00
      0.5919430000D+02  0.4847617180D+00
      0.2003100000D+02  0.3351998050D+00
 SP   6 1.00       0.000000000000
      0.3394780000D+03 -0.2782170105D-02  0.4564616191D-02
      0.8101010000D+02 -0.3604990135D-01  0.3369357188D-01
      0.2587800000D+02 -0.1166310044D+00  0.1397548834D+00
      0.9452210000D+01  0.9683280364D-01  0.3393617168D+00
      0.3665660000D+01  0.6144180231D+00  0.4509206237D+00
      0.1467460000D+01  0.4037980152D+00  0.2385858009D+00
 SP   3 1.00       0.000000000000
      0.2156230000D+01 -0.2529241139D+00 -0.1776531273D-01
      0.7489970000D+00  0.3285184468D-01  0.2740581964D+00
      0.2831450000D+00  0.1081254762D+01  0.7854215630D+00
 SP   1 1.00       0.000000000000
      0.9983170000D-01  0.1000000000D+01  0.1000000000D+01
 D   1 1.00       0.000000000000
      0.5500000000D+00  0.1000000000D+01
 ****
      8 0
 S   6 1.00       0.000000000000
      0.1941330000D+05  0.1851598923D-02
      0.2909420000D+04  0.1420619174D-01
      0.6613640000D+03  0.6999945928D-01
      0.1857590000D+03  0.2400788603D+00
      0.5919430000D+02  0.4847617180D+00
      0.2003100000D+02  0.3351998050D+00
 SP   6 1.00       0.000000000000
      0.3394780000D+03 -0.2782170105D-02  0.4564616191D-02
      0.8101010000D+02 -0.3604990135D-01  0.3369357188D-01
      0.2587800000D+02 -0.1166310044D+00  0.1397548834D+00
      0.9452210000D+01  0.9683280364D-01  0.3393617168D+00
      0.3665660000D+01  0.6144180231D+00  0.4509206237D+00
      0.1467460000D+01  0.4037980152D+00  0.2385858009D+00
 SP   3 1.00       0.000000000000
      0.2156230000D+01 -0.2529241139D+00 -0.1776531273D-01
      0.7489970000D+00  0.3285184468D-01  0.2740581964D+00
      0.2831450000D+00  0.1081254762D+01  0.7854215630D+00
 SP   1 1.00       0.000000000000
      0.9983170000D-01  0.1000000000D+01  0.1000000000D+01
 D   1 1.00       0.000000000000
      0.5500000000D+00  0.1000000000D+01
 ****
      9 0
 S   6 1.00       0.000000000000
      0.5484671660D+04  0.1831074430D-02
      0.8252349460D+03  0.1395017220D-01
      0.1880469580D+03  0.6844507810D-01
      0.5296450000D+02  0.2327143360D+00
      0.1689757040D+02  0.4701928980D+00
      0.5799635340D+01  0.3585208530D+00
 SP   3 1.00       0.000000000000
      0.1553961625D+02 -0.1107775495D+00  0.7087426823D-01
      0.3599933586D+01 -0.1480262627D+00  0.3397528391D+00
      0.1013761750D+01  0.1130767015D+01  0.7271585773D+00
 SP   1 1.00       0.000000000000
      0.2700058226D+00  0.1000000000D+01  0.1000000000D+01
 D   1 1.00       0.000000000000
      0.8000000000D+00  0.1000000000D+01
 ****
     10 0
 S   6 1.00       0.000000000000
      0.5484671660D+04  0.1831074430D-02
      0.8252349460D+03  0.1395017220D-01
      0.1880469580D+03  0.6844507810D-01
      0.5296450000D+02  0.2327143360D+00
      0.1689757040D+02  0.4701928980D+00
      0.5799635340D+01  0.3585208530D+00
 SP   3 1.00       0.000000000000
      0.1553961625D+02 -0.1107775495D+00  0.7087426823D-01
      0.3599933586D+01 -0.1480262627D+00  0.3397528391D+00
      0.1013761750D+01  0.1130767015D+01  0.7271585773D+00
 SP   1 1.00       0.000000000000
      0.2700058226D+00  0.1000000000D+01  0.1000000000D+01
 D   1 1.00       0.000000000000
      0.8000000000D+00  0.1000000000D+01
 ****
     11 0
 S   6 1.00       0.000000000000
      0.5484671660D+04  0.1831074430D-02
      0.8252349460D+03  0.1395017220D-01
      0.1880469580D+03  0.6844507810D-01
      0.5296450000D+02  0.2327143360D+00
      0.1689757040D+02  0.4701928980D+00
      0.5799635340D+01  0.3585208530D+00
 SP   3 1.00       0.000000000000
      0.1553961625D+02 -0.1107775495D+00  0.7087426823D-01
      0.3599933586D+01 -0.1480262627D+00  0.3397528391D+00
      0.1013761750D+01  0.1130767015D+01  0.7271585773D+00
 SP   1 1.00       0.000000000000
      0.2700058226D+00  0.1000000000D+01  0.1000000000D+01
 D   1 1.00       0.000000000000
      0.8000000000D+00  0.1000000000D+01
 ****
     12 0
 S   6 1.00       0.000000000000
      0.5484671660D+04  0.1831074430D-02
      0.8252349460D+03  0.1395017220D-01
      0.1880469580D+03  0.6844507810D-01
      0.5296450000D+02  0.2327143360D+00
      0.1689757040D+02  0.4701928980D+00
      0.5799635340D+01  0.3585208530D+00
 SP   3 1.00       0.000000000000
      0.1553961625D+02 -0.1107775495D+00  0.7087426823D-01
      0.3599933586D+01 -0.1480262627D+00  0.3397528391D+00
      0.1013761750D+01  0.1130767015D+01  0.7271585773D+00
 SP   1 1.00       0.000000000000
      0.2700058226D+00  0.1000000000D+01  0.1000000000D+01
 D   1 1.00       0.000000000000
      0.8000000000D+00  0.1000000000D+01
 ****
     13 0
 S   6 1.00       0.000000000000
      0.5484671660D+04  0.1831074430D-02
      0.8252349460D+03  0.1395017220D-01
      0.1880469580D+03  0.6844507810D-01
      0.5296450000D+02  0.2327143360D+00
      0.1689757040D+02  0.4701928980D+00
      0.5799635340D+01  0.3585208530D+00
 SP   3 1.00       0.000000000000
      0.1553961625D+02 -0.1107775495D+00  0.7087426823D-01
      0.3599933586D+01 -0.1480262627D+00  0.3397528391D+00
      0.1013761750D+01  0.1130767015D+01  0.7271585773D+00
 SP   1 1.00       0.000000000000
      0.2700058226D+00  0.1000000000D+01  0.1000000000D+01
 D   1 1.00       0.000000000000
      0.8000000000D+00  0.1000000000D+01
 ****
     14 0
 S   6 1.00       0.000000000000
      0.5484671660D+04  0.1831074430D-02
      0.8252349460D+03  0.1395017220D-01
      0.1880469580D+03  0.6844507810D-01
      0.5296450000D+02  0.2327143360D+00
      0.1689757040D+02  0.4701928980D+00
      0.5799635340D+01  0.3585208530D+00
 SP   3 1.00       0.000000000000
      0.1553961625D+02 -0.1107775495D+00  0.7087426823D-01
      0.3599933586D+01 -0.1480262627D+00  0.3397528391D+00
      0.1013761750D+01  0.1130767015D+01  0.7271585773D+00
 SP   1 1.00       0.000000000000
      0.2700058226D+00  0.1000000000D+01  0.1000000000D+01
 D   1 1.00       0.000000000000
      0.8000000000D+00  0.1000000000D+01
 ****
     15 0
 S   3 1.00       0.000000000000
      0.1873113696D+02  0.3349460434D-01
      0.2825394365D+01  0.2347269535D+00
      0.6401216923D+00  0.8137573261D+00
 S   1 1.00       0.000000000000
      0.1612777588D+00  0.1000000000D+01
 P   1 1.00       0.000000000000
      0.1100000000D+01  0.1000000000D+01
 ****
     16 0
 S   3 1.00       0.000000000000
      0.1873113696D+02  0.3349460434D-01
      0.2825394365D+01  0.2347269535D+00
      0.6401216923D+00  0.8137573261D+00
 S   1 1.00       0.000000000000
      0.1612777588D+00  0.1000000000D+01
 P   1 1.00       0.000000000000
      0.1100000000D+01  0.1000000000D+01
 ****

   198 basis functions,   391 primitive gaussians,   198 cartesian basis functions
    53 alpha electrons       52 beta electrons
       nuclear repulsion energy       953.5005233990 Hartrees.
 NAtoms=   16 NActive=   16 NUniq=   16 SFac= 1.00D+00 NAtFMM=   60 NAOKFM=F Big=F
 ------------------------------------------------------------------------------
 Polarizable Continuum Model (PCM)
 =================================
 Model                : PCM.
 Atomic radii         : UFF (Universal Force Field).
 Polarization charges : Total charges.
 Charge compensation  : None.
 Solution method      : On-the-fly selection.
 Cavity type          : Scaled VdW (van der Waals Surface) (Alpha=1.100).
 Cavity algorithm     : GePol (No added spheres)
                        Default sphere list used, NSphG=   16.
                        Lebedev-Laikov grids with approx.  5.0 points / Ang**2.
                        Smoothing algorithm: York/Karplus (Gamma=1.0000).
                        Polarization charges: spherical gaussians, with
                                              point-specific exponents (IZeta= 3).
                        Self-potential: point-specific (ISelfS= 7).
                        Self-field    : sphere-specific E.n sum rule (ISelfD= 2).
 Solvent              : Water, Eps=  78.355300 Eps(inf)=   1.777849
 ------------------------------------------------------------------------------
 Spheres list:
 ISph  on   Nord     Re0    Alpha      Xe            Ye            Ze
    1   C      1    1.9255  1.100     -0.076754      1.857931     -0.840479
    2   H      2    1.4430  1.100     -0.177993      1.532031     -1.880109
    3   H      3    1.4430  1.100      0.834835      2.454443     -0.758059
    4   C      4    1.9255  1.100      0.011459      0.657531      0.104421
    5   O      5    1.7500  1.100      0.051608      1.160501      1.465161
    6   H      6    1.4430  1.100      0.766949      0.571923      1.830951
    7   P      7    2.0735  1.100      1.689201     -0.273295     -0.096389
    8   P      8    2.0735  1.100     -1.522659     -0.384552     -0.064579
    9   O      9    1.7500  1.100      2.000591     -0.537815      1.415311
   10   O     10    1.7500  1.100     -1.560857     -1.503502      0.960051
   11   O     11    1.7500  1.100     -2.721431      0.712615      0.428511
   12   O     12    1.7500  1.100      2.656229      0.739817     -0.743929
   13   O     13    1.7500  1.100      1.488733     -1.557206     -0.922659
   14   O     14    1.7500  1.100     -1.849168     -0.679133     -1.524119
   15   H     15    1.4430  1.100     -0.945285      2.483889     -0.598949
   16   H     16    1.4430  1.100     -3.110492      1.050435     -0.389589
 ------------------------------------------------------------------------------
 ExpMin= 9.98D-02 ExpMax= 1.94D+04 ExpMxC= 2.91D+03 IAcc=3 IRadAn=         5 AccDes= 0.00D+00
 Harris functional with IExCor=  402 and IRadAn=       5 diagonalized for initial guess.
 HarFok:  IExCor=  402 AccDes= 0.00D+00 IRadAn=         5 IDoV= 1 UseB2=F ITyADJ=14
 ICtDFT=  3500011 ScaDFX=  1.000000  1.000000  1.000000  1.000000
 FoFCou: FMM=F IPFlag=           0 FMFlag=      100000 FMFlg1=           0
         NFxFlg=           0 DoJE=T BraDBF=F KetDBF=T FulRan=T
         wScrn=  0.000000 ICntrl=       500 IOpCl=  0 I1Cent=   200000004 NGrid=           0
         NMat0=    1 NMatS0=      1 NMatT0=    0 NMatD0=    1 NMtDS0=    0 NMtDT0=    0
 Petite list used in FoFCou.
 Initial guess <Sx>= 0.0000 <Sy>= 0.0000 <Sz>= 0.5000 <S**2>= 0.7500 S= 0.5000
 Inv3:  Mode=1 IEnd=     7844067.
 Iteration    1 A*A^-1 deviation from unit magnitude is 5.88D-15 for    393.
 Iteration    1 A*A^-1 deviation from orthogonality  is 3.55D-15 for   1523   1307.
 Iteration    1 A^-1*A deviation from unit magnitude is 6.00D-15 for    171.
 Iteration    1 A^-1*A deviation from orthogonality  is 3.14D-15 for   1422    198.
 Restarting incremental Fock formation.
 Error on total polarization charges =  0.00640
 SCF Done:  E(UB3LYP) =  -1288.86767934     A.U. after   27 cycles
            NFock= 27  Conv=0.76D-08     -V/T= 2.0063
 <Sx>= 0.0000 <Sy>= 0.0000 <Sz>= 0.5000 <S**2>= 0.7603 S= 0.5051
 <L.S>= 0.000000000000E+00
 Annihilation of the first spin contaminant:
 S**2 before annihilation     0.7603,   after     0.7501

 **********************************************************************

            Population analysis using the SCF density.

 **********************************************************************

 Orbital symmetries:
 Alpha Orbitals:
       Occupied  (A) (A) (A) (A) (A) (A) (A) (A) (A) (A) (A) (A)
                 (A) (A) (A) (A) (A) (A) (A) (A) (A) (A) (A) (A)
                 (A) (A) (A) (A) (A) (A) (A) (A) (A) (A) (A) (A)
                 (A) (A) (A) (A) (A) (A) (A) (A) (A) (A) (A) (A)
                 (A) (A) (A) (A) (A)
       Virtual   (A) (A) (A) (A) (A) (A) (A) (A) (A) (A) (A) (A)
                 (A) (A) (A) (A) (A) (A) (A) (A) (A) (A) (A) (A)
                 (A) (A) (A) (A) (A) (A) (A) (A) (A) (A) (A) (A)
                 (A) (A) (A) (A) (A) (A) (A) (A) (A) (A) (A) (A)
                 (A) (A) (A) (A) (A) (A) (A) (A) (A) (A) (A) (A)
                 (A) (A) (A) (A) (A) (A) (A) (A) (A) (A) (A) (A)
                 (A) (A) (A) (A) (A) (A) (A) (A) (A) (A) (A) (A)
                 (A) (A) (A) (A) (A) (A) (A) (A) (A) (A) (A) (A)
                 (A) (A) (A) (A) (A) (A) (A) (A) (A) (A) (A) (A)
                 (A) (A) (A) (A) (A) (A) (A) (A) (A) (A) (A) (A)
                 (A) (A) (A) (A) (A) (A) (A) (A) (A) (A) (A) (A)
                 (A) (A) (A) (A) (A) (A) (A) (A) (A) (A) (A) (A)
                 (A)
 Beta  Orbitals:
       Occupied  (A) (A) (A) (A) (A) (A) (A) (A) (A) (A) (A) (A)
                 (A) (A) (A) (A) (A) (A) (A) (A) (A) (A) (A) (A)
                 (A) (A) (A) (A) (A) (A) (A) (A) (A) (A) (A) (A)
                 (A) (A) (A) (A) (A) (A) (A) (A) (A) (A) (A) (A)
                 (A) (A) (A) (A)
       Virtual   (A) (A) (A) (A) (A) (A) (A) (A) (A) (A) (A) (A)
                 (A) (A) (A) (A) (A) (A) (A) (A) (A) (A) (A) (A)
                 (A) (A) (A) (A) (A) (A) (A) (A) (A) (A) (A) (A)
                 (A) (A) (A) (A) (A) (A) (A) (A) (A) (A) (A) (A)
                 (A) (A) (A) (A) (A) (A) (A) (A) (A) (A) (A) (A)
                 (A) (A) (A) (A) (A) (A) (A) (A) (A) (A) (A) (A)
                 (A) (A) (A) (A) (A) (A) (A) (A) (A) (A) (A) (A)
                 (A) (A) (A) (A) (A) (A) (A) (A) (A) (A) (A) (A)
                 (A) (A) (A) (A) (A) (A) (A) (A) (A) (A) (A) (A)
                 (A) (A) (A) (A) (A) (A) (A) (A) (A) (A) (A) (A)
                 (A) (A) (A) (A) (A) (A) (A) (A) (A) (A) (A) (A)
                 (A) (A) (A) (A) (A) (A) (A) (A) (A) (A) (A) (A)
                 (A) (A)
 The electronic state is 2-A.
 Alpha  occ. eigenvalues --  -77.16598 -77.14222 -19.12481 -19.12372 -19.12286
 Alpha  occ. eigenvalues --  -19.12177 -19.12106 -19.05408 -19.05192 -10.21500
 Alpha  occ. eigenvalues --  -10.16124  -6.61450  -6.59066  -4.77785  -4.77751
 Alpha  occ. eigenvalues --   -4.77714  -4.75570  -4.75270  -4.75248  -1.01317
 Alpha  occ. eigenvalues --   -0.99181  -0.98039  -0.93028  -0.92935  -0.91277
 Alpha  occ. eigenvalues --   -0.87471  -0.72728  -0.59840  -0.53514  -0.49807
 Alpha  occ. eigenvalues --   -0.47215  -0.44739  -0.41023  -0.40542  -0.39784
 Alpha  occ. eigenvalues --   -0.38690  -0.37771  -0.36695  -0.35123  -0.34722
 Alpha  occ. eigenvalues --   -0.32740  -0.32617  -0.32438  -0.29730  -0.28613
 Alpha  occ. eigenvalues --   -0.27946  -0.27605  -0.27336  -0.25805  -0.24898
 Alpha  occ. eigenvalues --   -0.23376  -0.22066  -0.21491
 Alpha virt. eigenvalues --    0.09144   0.10942   0.11833   0.12858   0.16223
 Alpha virt. eigenvalues --    0.16710   0.17379   0.17640   0.20909   0.21505
 Alpha virt. eigenvalues --    0.22724   0.23284   0.26000   0.26832   0.28537
 Alpha virt. eigenvalues --    0.33893   0.36951   0.39350   0.41939   0.42155
 Alpha virt. eigenvalues --    0.43828   0.46587   0.49682   0.56612   0.59027
 Alpha virt. eigenvalues --    0.60177   0.65773   0.66714   0.67580   0.73538
 Alpha virt. eigenvalues --    0.74321   0.78260   0.80673   0.81237   0.83103
 Alpha virt. eigenvalues --    0.84970   0.85547   0.86841   0.87402   0.92019
 Alpha virt. eigenvalues --    0.92835   0.94948   0.95290   0.95529   0.98041
 Alpha virt. eigenvalues --    1.00341   1.01247   1.01973   1.04673   1.05432
 Alpha virt. eigenvalues --    1.05630   1.06231   1.07119   1.08113   1.09733
 Alpha virt. eigenvalues --    1.10865   1.11920   1.14513   1.16842   1.18735
 Alpha virt. eigenvalues --    1.19996   1.22531   1.23616   1.25084   1.25829
 Alpha virt. eigenvalues --    1.34468   1.36732   1.39197   1.44668   1.45113
 Alpha virt. eigenvalues --    1.47140   1.52701   1.56382   1.59860   1.62786
 Alpha virt. eigenvalues --    1.65412   1.67941   1.71678   1.76040   1.76416
 Alpha virt. eigenvalues --    1.79270   1.80640   1.81032   1.82550   1.84013
 Alpha virt. eigenvalues --    1.85094   1.85916   1.86902   1.88757   1.89627
 Alpha virt. eigenvalues --    1.90016   1.90915   1.92409   1.93843   1.99911
 Alpha virt. eigenvalues --    2.01180   2.03268   2.05599   2.05889   2.06819
 Alpha virt. eigenvalues --    2.09734   2.11894   2.13576   2.16828   2.18009
 Alpha virt. eigenvalues --    2.22151   2.26733   2.27870   2.30271   2.34086
 Alpha virt. eigenvalues --    2.41412   2.45333   2.48255   2.51572   2.53029
 Alpha virt. eigenvalues --    2.55557   2.64200   2.67113   2.69311   2.73606
 Alpha virt. eigenvalues --    2.76523   2.79902   2.80743   2.81708   2.84991
 Alpha virt. eigenvalues --    2.87864   2.89541   2.97989   3.02601   3.23173
 Alpha virt. eigenvalues --    3.41533   3.45522   3.46370   3.49418   3.55670
 Alpha virt. eigenvalues --    3.60826   3.77503   3.78098   3.89533   3.94274
 Alpha virt. eigenvalues --    3.99936   4.09562   4.21627   4.40675   4.59786
  Beta  occ. eigenvalues --  -77.16626 -77.14219 -19.12275 -19.12167 -19.11654
  Beta  occ. eigenvalues --  -19.11399 -19.11216 -19.05366 -19.05186 -10.21461
  Beta  occ. eigenvalues --  -10.16127  -6.61487  -6.59063  -4.77841  -4.77806
  Beta  occ. eigenvalues --   -4.77738  -4.75570  -4.75263  -4.75244  -1.00437
  Beta  occ. eigenvalues --   -0.98844  -0.97276  -0.91281  -0.90756  -0.90604
  Beta  occ. eigenvalues --   -0.87404  -0.72635  -0.59673  -0.53114  -0.49625
  Beta  occ. eigenvalues --   -0.46775  -0.44403  -0.40346  -0.40182  -0.38702
  Beta  occ. eigenvalues --   -0.37837  -0.37271  -0.36552  -0.34899  -0.34329
  Beta  occ. eigenvalues --   -0.32408  -0.29630  -0.28972  -0.28320  -0.27092
  Beta  occ. eigenvalues --   -0.26890  -0.26624  -0.25229  -0.24639  -0.23251
  Beta  occ. eigenvalues --   -0.22020  -0.21071
  Beta virt. eigenvalues --   -0.16496   0.09268   0.11289   0.12124   0.13232
  Beta virt. eigenvalues --    0.16360   0.16931   0.17627   0.18092   0.21050
  Beta virt. eigenvalues --    0.21564   0.22942   0.23652   0.26337   0.27060
  Beta virt. eigenvalues --    0.28907   0.34035   0.36977   0.39372   0.41947
  Beta virt. eigenvalues --    0.42161   0.43849   0.46767   0.49728   0.56846
  Beta virt. eigenvalues --    0.59173   0.60266   0.65894   0.66862   0.67611
  Beta virt. eigenvalues --    0.73599   0.74451   0.78369   0.80981   0.81841
  Beta virt. eigenvalues --    0.83185   0.85183   0.85681   0.86965   0.87718
  Beta virt. eigenvalues --    0.92108   0.92914   0.95116   0.95456   0.95675
  Beta virt. eigenvalues --    0.98313   1.00990   1.02188   1.02784   1.05290
  Beta virt. eigenvalues --    1.05714   1.06350   1.06900   1.07889   1.08625
  Beta virt. eigenvalues --    1.10068   1.10930   1.12552   1.14740   1.17274
  Beta virt. eigenvalues --    1.19140   1.20411   1.22787   1.24045   1.25315
  Beta virt. eigenvalues --    1.26190   1.34852   1.36840   1.39686   1.45184
  Beta virt. eigenvalues --    1.45381   1.47261   1.53299   1.56634   1.60011
  Beta virt. eigenvalues --    1.63114   1.65553   1.68172   1.71810   1.77035
  Beta virt. eigenvalues --    1.77565   1.80445   1.82189   1.82594   1.83915
  Beta virt. eigenvalues --    1.85465   1.85694   1.86704   1.87821   1.89253
  Beta virt. eigenvalues --    1.90036   1.90460   1.91373   1.92741   1.94363
  Beta virt. eigenvalues --    2.00402   2.01587   2.03377   2.05770   2.06079
  Beta virt. eigenvalues --    2.06922   2.09800   2.12399   2.13661   2.16954
  Beta virt. eigenvalues --    2.18061   2.22457   2.27689   2.29025   2.30805
  Beta virt. eigenvalues --    2.34265   2.41472   2.45448   2.48437   2.51652
  Beta virt. eigenvalues --    2.53057   2.55645   2.64847   2.67117   2.69440
  Beta virt. eigenvalues --    2.73623   2.76595   2.80614   2.81194   2.82097
  Beta virt. eigenvalues --    2.85216   2.87900   2.89568   2.98166   3.02679
  Beta virt. eigenvalues --    3.23189   3.41540   3.45541   3.46383   3.49417
  Beta virt. eigenvalues --    3.55683   3.60845   3.78592   3.79055   3.89767
  Beta virt. eigenvalues --    3.94534   4.00961   4.09730   4.21770   4.40767
  Beta virt. eigenvalues --    4.59822
     Alpha Molecular Orbital Coefficients:
                           1         2         3         4         5
                           O         O         O         O         O
     Eigenvalues --   -77.16598 -77.14222 -19.12481 -19.12372 -19.12286
   1 1   C  1S         -0.00001  -0.00001   0.00000   0.00000  -0.00003
   2        2S          0.00001  -0.00002   0.00003   0.00007  -0.00010
   3        2PX        -0.00001   0.00001   0.00000   0.00004  -0.00002
   4        2PY         0.00004   0.00003   0.00001   0.00002   0.00004
   5        2PZ        -0.00002  -0.00001  -0.00003   0.00009   0.00002
   6        3S         -0.00010   0.00003  -0.00023   0.00026   0.00066
   7        3PX        -0.00010   0.00004  -0.00023  -0.00022   0.00021
   8        3PY         0.00016   0.00014   0.00003  -0.00028  -0.00029
   9        3PZ        -0.00011  -0.00014  -0.00004  -0.00032   0.00030
  10        4XX        -0.00002  -0.00001  -0.00000   0.00002  -0.00006
  11        4YY        -0.00005  -0.00003   0.00001   0.00001  -0.00006
  12        4ZZ        -0.00003  -0.00003  -0.00002  -0.00007  -0.00002
  13        4XY         0.00002   0.00000   0.00001  -0.00001   0.00001
  14        4XZ        -0.00002   0.00002  -0.00002  -0.00000   0.00001
  15        4YZ         0.00001   0.00001   0.00000   0.00000  -0.00003
  16 2   H  1S          0.00002   0.00001   0.00004  -0.00004  -0.00008
  17        2S         -0.00012  -0.00021  -0.00006  -0.00029   0.00026
  18        3PX        -0.00001   0.00002   0.00001   0.00001  -0.00001
  19        3PY         0.00001   0.00002   0.00000   0.00002   0.00001
  20        3PZ        -0.00001  -0.00002   0.00000  -0.00001   0.00002
  21 3   H  1S          0.00002  -0.00001   0.00000   0.00007  -0.00002
  22        2S         -0.00014  -0.00001   0.00019   0.00017  -0.00018
  23        3PX        -0.00001   0.00000  -0.00000  -0.00000  -0.00001
  24        3PY         0.00003  -0.00001  -0.00001  -0.00001   0.00002
  25        3PZ        -0.00001   0.00001  -0.00001   0.00005  -0.00001
  26 4   C  1S         -0.00005  -0.00004  -0.00004  -0.00002  -0.00002
  27        2S         -0.00013  -0.00004  -0.00020   0.00004  -0.00012
  28        2PX         0.00005  -0.00005  -0.00004   0.00002   0.00003
  29        2PY        -0.00002  -0.00001  -0.00000   0.00016   0.00006
  30        2PZ         0.00001  -0.00001   0.00002   0.00026   0.00003
  31        3S          0.00125   0.00098   0.00142  -0.00089   0.00046
  32        3PX         0.00047  -0.00032   0.00077  -0.00033   0.00002
  33        3PY        -0.00014  -0.00018   0.00006  -0.00058  -0.00102
  34        3PZ        -0.00004   0.00007   0.00042  -0.00066  -0.00018
  35        4XX        -0.00010  -0.00014  -0.00005   0.00003   0.00002
  36        4YY        -0.00009  -0.00010  -0.00004   0.00006  -0.00002
  37        4ZZ        -0.00007  -0.00007  -0.00000   0.00024  -0.00005
  38        4XY         0.00001  -0.00005  -0.00002   0.00002  -0.00003
  39        4XZ         0.00000  -0.00001  -0.00002  -0.00001  -0.00000
  40        4YZ        -0.00000  -0.00001   0.00004   0.00013   0.00001
  41 5   O  1S          0.00000   0.00000  -0.00028   0.99275   0.00008
  42        2S          0.00001   0.00001   0.00001   0.02583  -0.00001
  43        2PX        -0.00001  -0.00000  -0.00002   0.00052   0.00002
  44        2PY         0.00001   0.00001  -0.00004  -0.00064  -0.00000
  45        2PZ         0.00001   0.00002  -0.00004  -0.00032  -0.00000
  46        3S         -0.00020  -0.00024  -0.00003   0.01220   0.00014
  47        3PX        -0.00003   0.00012   0.00026   0.00008  -0.00007
  48        3PY         0.00003   0.00005   0.00003  -0.00034   0.00007
  49        3PZ         0.00015   0.00009   0.00045  -0.00026  -0.00009
  50        4XX         0.00001   0.00001   0.00005  -0.00804  -0.00000
  51        4YY        -0.00002  -0.00001   0.00001  -0.00809  -0.00001
  52        4ZZ        -0.00000  -0.00000  -0.00004  -0.00817   0.00004
  53        4XY        -0.00003   0.00002  -0.00002  -0.00003  -0.00000
  54        4XZ         0.00002  -0.00001   0.00004   0.00003   0.00000
  55        4YZ        -0.00000   0.00001  -0.00006  -0.00007  -0.00001
  56 6   H  1S         -0.00000   0.00002  -0.00016   0.00029   0.00003
  57        2S         -0.00021  -0.00014  -0.00070  -0.00178  -0.00005
  58        3PX         0.00002   0.00001  -0.00001   0.00009  -0.00001
  59        3PY        -0.00001   0.00001   0.00001  -0.00004   0.00000
  60        3PZ        -0.00003   0.00002   0.00004   0.00011   0.00001
  61 7   P  1S          0.99625   0.00005   0.00001   0.00000   0.00001
  62        2S          0.01417   0.00001  -0.00004  -0.00001  -0.00006
  63        2PX        -0.00002  -0.00001  -0.00000  -0.00000   0.00001
  64        2PY         0.00001   0.00000   0.00001   0.00000   0.00002
  65        2PZ         0.00001  -0.00000  -0.00003  -0.00001   0.00002
  66        3S         -0.02714   0.00015   0.00059  -0.00000   0.00062
  67        3PX         0.00013   0.00007  -0.00003  -0.00003  -0.00008
  68        3PY        -0.00009  -0.00001  -0.00004  -0.00001  -0.00012
  69        3PZ        -0.00002   0.00004   0.00016   0.00011  -0.00015
  70        4S          0.00252  -0.00036  -0.00354   0.00050  -0.00295
  71        4PX        -0.00014   0.00020   0.00040  -0.00019   0.00077
  72        4PY        -0.00003   0.00013   0.00015  -0.00013   0.00145
  73        4PZ        -0.00001   0.00004  -0.00181   0.00036   0.00099
  74        5XX         0.00941  -0.00010  -0.00014  -0.00003  -0.00020
  75        5YY         0.00943  -0.00003  -0.00025  -0.00000  -0.00002
  76        5ZZ         0.00945  -0.00002   0.00009   0.00001  -0.00019
  77        5XY         0.00003   0.00000  -0.00004  -0.00002   0.00001
  78        5XZ         0.00002   0.00002   0.00009   0.00003   0.00005
  79        5YZ        -0.00001  -0.00001  -0.00009  -0.00002   0.00017
  80 8   P  1S         -0.00004   0.99625  -0.00000   0.00001  -0.00000
  81        2S          0.00001   0.01417  -0.00004   0.00008  -0.00000
  82        2PX         0.00001  -0.00000   0.00001  -0.00001   0.00000
  83        2PY         0.00000   0.00003  -0.00000  -0.00001   0.00000
  84        2PZ         0.00000   0.00001   0.00001   0.00001   0.00001
  85        3S          0.00014  -0.02719  -0.00011   0.00044  -0.00004
  86        3PX        -0.00007  -0.00009  -0.00008   0.00012  -0.00003
  87        3PY        -0.00005  -0.00012  -0.00000   0.00016   0.00001
  88        3PZ        -0.00001  -0.00002  -0.00006  -0.00002  -0.00003
  89        4S         -0.00026   0.00291   0.00087  -0.00179  -0.00063
  90        4PX        -0.00019   0.00032   0.00046  -0.00037  -0.00021
  91        4PY         0.00010   0.00013  -0.00006  -0.00067  -0.00006
  92        4PZ         0.00004  -0.00017   0.00021  -0.00056   0.00032
  93        5XX        -0.00011   0.00940  -0.00004   0.00000   0.00000
  94        5YY        -0.00001   0.00942  -0.00003   0.00003   0.00001
  95        5ZZ        -0.00002   0.00947  -0.00004  -0.00003  -0.00005
  96        5XY        -0.00002  -0.00002   0.00001   0.00002  -0.00004
  97        5XZ         0.00000  -0.00001  -0.00002   0.00000  -0.00004
  98        5YZ        -0.00000   0.00000  -0.00002   0.00000   0.00001
  99 9   O  1S         -0.00000   0.00000   0.99267   0.00029   0.00030
 100        2S         -0.00005   0.00001   0.02583   0.00005  -0.00009
 101        2PX         0.00002  -0.00001  -0.00013   0.00000   0.00003
 102        2PY        -0.00003   0.00000   0.00012  -0.00000   0.00006
 103        2PZ         0.00013  -0.00001  -0.00063  -0.00005  -0.00001
 104        3S          0.00069  -0.00001   0.01265  -0.00012   0.00057
 105        3PX        -0.00006   0.00001  -0.00035  -0.00009  -0.00018
 106        3PY         0.00011  -0.00002   0.00022   0.00012  -0.00027
 107        3PZ        -0.00040   0.00004  -0.00041   0.00030  -0.00023
 108        4XX        -0.00000   0.00001  -0.00825   0.00002  -0.00004
 109        4YY         0.00001   0.00003  -0.00820   0.00002  -0.00010
 110        4ZZ        -0.00023   0.00001  -0.00832   0.00000  -0.00003
 111        4XY         0.00001  -0.00000   0.00002   0.00002  -0.00001
 112        4XZ        -0.00007  -0.00001  -0.00000  -0.00003   0.00002
 113        4YZ         0.00005   0.00001   0.00003   0.00002   0.00000
 114 10  O  1S          0.00000   0.00000   0.00001  -0.00003  -0.00001
 115        2S          0.00001  -0.00006   0.00006  -0.00019  -0.00008
 116        2PX         0.00001   0.00001  -0.00002  -0.00001  -0.00004
 117        2PY         0.00001  -0.00012   0.00001  -0.00005   0.00001
 118        2PZ         0.00001   0.00012  -0.00000  -0.00002   0.00002
 119        3S         -0.00003   0.00064  -0.00035   0.00091   0.00035
 120        3PX        -0.00003  -0.00007   0.00004   0.00007   0.00015
 121        3PY        -0.00004   0.00030  -0.00006   0.00032   0.00002
 122        3PZ        -0.00001  -0.00029   0.00004   0.00002  -0.00014
 123        4XX         0.00001   0.00004   0.00005  -0.00014  -0.00006
 124        4YY         0.00002  -0.00011   0.00002  -0.00009  -0.00008
 125        4ZZ         0.00002  -0.00008   0.00001  -0.00016  -0.00006
 126        4XY        -0.00000  -0.00002   0.00000   0.00001   0.00000
 127        4XZ         0.00000   0.00001   0.00000  -0.00000  -0.00002
 128        4YZ         0.00001   0.00015  -0.00001  -0.00000  -0.00002
 129 11  O  1S         -0.00000  -0.00002  -0.00008  -0.00005   0.00000
 130        2S         -0.00001  -0.00006   0.00001  -0.00018  -0.00002
 131        2PX        -0.00001  -0.00001   0.00001  -0.00001  -0.00001
 132        2PY        -0.00000   0.00003   0.00000   0.00002  -0.00000
 133        2PZ         0.00000   0.00003   0.00001   0.00000   0.00001
 134        3S          0.00000   0.00083  -0.00009   0.00089   0.00008
 135        3PX         0.00004   0.00014  -0.00006   0.00024   0.00006
 136        3PY         0.00002  -0.00025   0.00001  -0.00012   0.00002
 137        3PZ        -0.00001  -0.00025  -0.00005   0.00001  -0.00006
 138        4XX        -0.00000  -0.00016   0.00001  -0.00008  -0.00001
 139        4YY        -0.00001  -0.00012   0.00001  -0.00011  -0.00002
 140        4ZZ        -0.00001  -0.00003   0.00002  -0.00010  -0.00001
 141        4XY        -0.00000   0.00008   0.00000  -0.00001   0.00001
 142        4XZ        -0.00000   0.00009  -0.00000   0.00001  -0.00000
 143        4YZ         0.00000  -0.00007   0.00000  -0.00002  -0.00000
 144 12  O  1S         -0.00000  -0.00000  -0.00035   0.00034  -0.00080
 145        2S         -0.00007  -0.00001  -0.00009  -0.00007  -0.00006
 146        2PX         0.00009   0.00001  -0.00002   0.00002  -0.00000
 147        2PY         0.00011   0.00000  -0.00003   0.00000   0.00002
 148        2PZ        -0.00007   0.00000  -0.00004  -0.00000   0.00006
 149        3S          0.00075   0.00003   0.00049   0.00034   0.00029
 150        3PX        -0.00027  -0.00006  -0.00008  -0.00008  -0.00013
 151        3PY        -0.00031  -0.00002  -0.00004  -0.00004  -0.00027
 152        3PZ         0.00020  -0.00002   0.00035  -0.00001  -0.00022
 153        4XX        -0.00009  -0.00000  -0.00002  -0.00006   0.00002
 154        4YY        -0.00010  -0.00000  -0.00002  -0.00006  -0.00000
 155        4ZZ        -0.00004  -0.00001  -0.00005  -0.00008  -0.00003
 156        4XY        -0.00012   0.00001   0.00000   0.00001   0.00001
 157        4XZ         0.00008  -0.00000  -0.00004  -0.00001   0.00001
 158        4YZ         0.00008  -0.00000  -0.00001   0.00000  -0.00003
 159 13  O  1S          0.00000  -0.00001  -0.00036  -0.00007   0.99269
 160        2S         -0.00005  -0.00002  -0.00015   0.00004   0.02593
 161        2PX        -0.00002  -0.00002   0.00001  -0.00000   0.00014
 162        2PY        -0.00013  -0.00000   0.00003  -0.00000   0.00059
 163        2PZ        -0.00009  -0.00001  -0.00005   0.00002   0.00037
 164        3S          0.00061   0.00016   0.00081  -0.00018   0.01231
 165        3PX         0.00007   0.00007  -0.00001   0.00003  -0.00010
 166        3PY         0.00036   0.00003   0.00007   0.00001   0.00041
 167        3PZ         0.00024   0.00004   0.00044  -0.00011   0.00026
 168        4XX         0.00003  -0.00004  -0.00007   0.00003  -0.00822
 169        4YY        -0.00015  -0.00000  -0.00008   0.00004  -0.00821
 170        4ZZ        -0.00005  -0.00000  -0.00008   0.00001  -0.00817
 171        4XY        -0.00003   0.00001  -0.00000   0.00001  -0.00000
 172        4XZ        -0.00002   0.00000  -0.00001  -0.00000  -0.00002
 173        4YZ        -0.00013   0.00000   0.00005  -0.00001  -0.00007
 174 14  O  1S          0.00000   0.00002   0.00001  -0.00000  -0.00002
 175        2S         -0.00000  -0.00000   0.00004   0.00000  -0.00015
 176        2PX         0.00001  -0.00002   0.00002  -0.00000  -0.00002
 177        2PY         0.00001  -0.00002  -0.00001  -0.00002   0.00000
 178        2PZ         0.00000  -0.00016   0.00001   0.00000  -0.00001
 179        3S          0.00002   0.00033  -0.00018  -0.00001   0.00073
 180        3PX        -0.00001  -0.00001  -0.00010   0.00003   0.00012
 181        3PY        -0.00002   0.00005   0.00003   0.00011   0.00001
 182        3PZ        -0.00001   0.00039  -0.00006   0.00004   0.00012
 183        4XX         0.00000   0.00006   0.00003   0.00001  -0.00010
 184        4YY         0.00002   0.00007   0.00003   0.00002  -0.00012
 185        4ZZ         0.00000  -0.00015   0.00003   0.00002  -0.00010
 186        4XY        -0.00000  -0.00002   0.00000  -0.00000  -0.00001
 187        4XZ        -0.00000  -0.00008  -0.00001  -0.00000   0.00001
 188        4YZ        -0.00001  -0.00006   0.00000   0.00001   0.00001
 189 15  H  1S         -0.00001   0.00001  -0.00001   0.00003  -0.00000
 190        2S         -0.00002  -0.00016  -0.00006   0.00002   0.00013
 191        3PX         0.00001   0.00001   0.00000  -0.00000   0.00002
 192        3PY        -0.00001   0.00003   0.00000   0.00000  -0.00001
 193        3PZ         0.00001  -0.00001   0.00000   0.00005  -0.00001
 194 16  H  1S          0.00000  -0.00011  -0.00002  -0.00004  -0.00002
 195        2S         -0.00002  -0.00022   0.00003   0.00012   0.00004
 196        3PX        -0.00000   0.00001  -0.00000   0.00001  -0.00000
 197        3PY        -0.00000  -0.00000  -0.00000   0.00000  -0.00000
 198        3PZ         0.00000  -0.00002  -0.00001   0.00000  -0.00000
                           6         7         8         9        10
                           O         O         O         O         O
     Eigenvalues --   -19.12177 -19.12106 -19.05408 -19.05192 -10.21500
   1 1   C  1S         -0.00003   0.00002  -0.00003   0.00002   0.00190
   2        2S         -0.00016   0.00004  -0.00011   0.00009  -0.00021
   3        2PX         0.00002   0.00001   0.00007  -0.00006  -0.00006
   4        2PY         0.00000   0.00000   0.00005  -0.00006  -0.00006
   5        2PZ         0.00003  -0.00002  -0.00002  -0.00000  -0.00004
   6        3S          0.00098  -0.00052   0.00020  -0.00023   0.00573
   7        3PX        -0.00026   0.00010  -0.00054   0.00052   0.00055
   8        3PY        -0.00041   0.00037  -0.00028   0.00038  -0.00114
   9        3PZ         0.00019   0.00004  -0.00003  -0.00006   0.00196
  10        4XX        -0.00002   0.00009  -0.00004   0.00007  -0.00011
  11        4YY        -0.00002   0.00002  -0.00004   0.00004  -0.00035
  12        4ZZ        -0.00002   0.00002  -0.00003   0.00004  -0.00022
  13        4XY         0.00001  -0.00000   0.00000   0.00001   0.00002
  14        4XZ        -0.00001  -0.00001   0.00001   0.00001  -0.00001
  15        4YZ        -0.00002   0.00001   0.00000   0.00001   0.00016
  16 2   H  1S         -0.00008   0.00002  -0.00001   0.00008  -0.00006
  17        2S         -0.00002   0.00029  -0.00003  -0.00014  -0.00018
  18        3PX         0.00001   0.00003   0.00001  -0.00002  -0.00002
  19        3PY         0.00001  -0.00001  -0.00002  -0.00001   0.00002
  20        3PZ        -0.00000   0.00002  -0.00001  -0.00001  -0.00000
  21 3   H  1S         -0.00001   0.00007   0.00005  -0.00006  -0.00027
  22        2S          0.00014  -0.00022   0.00032  -0.00030  -0.00066
  23        3PX        -0.00001   0.00003  -0.00002   0.00003   0.00001
  24        3PY        -0.00000   0.00002  -0.00002   0.00001  -0.00003
  25        3PZ         0.00000   0.00001  -0.00000   0.00001   0.00001
  26 4   C  1S         -0.00000  -0.00003  -0.00003  -0.00001   0.99326
  27        2S         -0.00003  -0.00014  -0.00017  -0.00011   0.04990
  28        2PX        -0.00007  -0.00002   0.00001  -0.00001  -0.00001
  29        2PY         0.00005  -0.00003  -0.00002   0.00001   0.00045
  30        2PZ        -0.00004  -0.00001   0.00005  -0.00005   0.00056
  31        3S          0.00021   0.00084   0.00093   0.00059  -0.02043
  32        3PX        -0.00009   0.00050  -0.00052  -0.00022   0.00011
  33        3PY        -0.00073   0.00012  -0.00020  -0.00022  -0.00174
  34        3PZ         0.00032  -0.00061  -0.00035   0.00023  -0.00025
  35        4XX         0.00005   0.00001   0.00001   0.00001  -0.00859
  36        4YY        -0.00000  -0.00003  -0.00002   0.00003  -0.00860
  37        4ZZ        -0.00001  -0.00006  -0.00003  -0.00000  -0.00846
  38        4XY         0.00003  -0.00002   0.00003   0.00002  -0.00000
  39        4XZ        -0.00001  -0.00002   0.00001  -0.00000   0.00002
  40        4YZ         0.00002  -0.00003   0.00002  -0.00000  -0.00001
  41 5   O  1S         -0.00002  -0.00040   0.00002  -0.00003  -0.00014
  42        2S         -0.00013  -0.00016   0.00004  -0.00009  -0.00042
  43        2PX         0.00002  -0.00003  -0.00003   0.00003  -0.00001
  44        2PY         0.00003   0.00001  -0.00003   0.00003   0.00003
  45        2PZ         0.00000   0.00004  -0.00000  -0.00000   0.00013
  46        3S          0.00051   0.00061  -0.00010   0.00025   0.00401
  47        3PX        -0.00020   0.00005   0.00016  -0.00017   0.00001
  48        3PY        -0.00009  -0.00008   0.00009  -0.00008  -0.00012
  49        3PZ        -0.00007  -0.00024   0.00003   0.00004  -0.00101
  50        4XX        -0.00005  -0.00010   0.00006  -0.00008  -0.00017
  51        4YY        -0.00008  -0.00013   0.00003  -0.00007  -0.00032
  52        4ZZ        -0.00009  -0.00010   0.00004  -0.00009  -0.00070
  53        4XY         0.00003   0.00001  -0.00002   0.00005   0.00001
  54        4XZ         0.00002  -0.00001  -0.00001  -0.00001   0.00002
  55        4YZ        -0.00002   0.00003  -0.00000  -0.00001  -0.00028
  56 6   H  1S         -0.00007  -0.00007   0.00002  -0.00000   0.00004
  57        2S          0.00011   0.00024  -0.00014   0.00005  -0.00022
  58        3PX         0.00001  -0.00001   0.00001  -0.00002  -0.00001
  59        3PY         0.00002   0.00003  -0.00002   0.00003  -0.00009
  60        3PZ         0.00001  -0.00001   0.00001  -0.00001  -0.00014
  61 7   P  1S          0.00000   0.00001  -0.00000  -0.00000   0.00001
  62        2S          0.00001  -0.00006  -0.00003  -0.00002  -0.00008
  63        2PX        -0.00001  -0.00002  -0.00001  -0.00000   0.00004
  64        2PY        -0.00000  -0.00002  -0.00000   0.00000  -0.00003
  65        2PZ         0.00000   0.00001  -0.00001   0.00000   0.00000
  66        3S          0.00003   0.00060  -0.00007  -0.00006  -0.00005
  67        3PX         0.00003   0.00008   0.00007   0.00003  -0.00048
  68        3PY         0.00001   0.00017   0.00004   0.00001   0.00033
  69        3PZ        -0.00001  -0.00009   0.00007   0.00000  -0.00000
  70        4S         -0.00028  -0.00293   0.00044   0.00024   0.00402
  71        4PX         0.00015  -0.00084  -0.00016  -0.00014  -0.00125
  72        4PY         0.00009  -0.00168   0.00007  -0.00006   0.00136
  73        4PZ         0.00010   0.00062  -0.00007   0.00003   0.00060
  74        5XX        -0.00004  -0.00008  -0.00005  -0.00002   0.00007
  75        5YY         0.00000  -0.00008  -0.00003  -0.00004   0.00010
  76        5ZZ        -0.00000  -0.00020  -0.00003  -0.00003  -0.00002
  77        5XY         0.00000   0.00012  -0.00002   0.00001  -0.00008
  78        5XZ         0.00003  -0.00011  -0.00002  -0.00001  -0.00001
  79        5YZ        -0.00002  -0.00012   0.00001  -0.00001   0.00005
  80 8   P  1S          0.00001   0.00000   0.00002   0.00001   0.00000
  81        2S          0.00003   0.00000  -0.00002  -0.00009  -0.00010
  82        2PX         0.00004  -0.00000  -0.00001  -0.00001  -0.00003
  83        2PY        -0.00006  -0.00000  -0.00000   0.00001  -0.00002
  84        2PZ        -0.00003  -0.00001   0.00003  -0.00002  -0.00002
  85        3S          0.00009  -0.00000   0.00093   0.00056  -0.00010
  86        3PX         0.00009   0.00003   0.00008   0.00008   0.00048
  87        3PY         0.00023   0.00000   0.00007  -0.00014   0.00023
  88        3PZ         0.00006   0.00005  -0.00022   0.00017   0.00010
  89        4S         -0.00305   0.00006  -0.00401  -0.00233   0.00463
  90        4PX         0.00041  -0.00021   0.00012  -0.00037   0.00099
  91        4PY        -0.00120   0.00037  -0.00069   0.00159   0.00197
  92        4PZ        -0.00108  -0.00017   0.00235  -0.00204   0.00018
  93        5XX         0.00020   0.00000  -0.00020  -0.00022  -0.00006
  94        5YY         0.00021   0.00001  -0.00024  -0.00015  -0.00004
  95        5ZZ         0.00002   0.00002  -0.00004  -0.00015   0.00007
  96        5XY        -0.00011  -0.00001   0.00000  -0.00003   0.00007
  97        5XZ        -0.00006   0.00004   0.00004  -0.00001   0.00004
  98        5YZ         0.00011   0.00003   0.00005  -0.00012   0.00001
  99 9   O  1S          0.00009   0.00032   0.00001  -0.00000   0.00006
 100        2S          0.00003  -0.00007   0.00002   0.00000   0.00021
 101        2PX        -0.00000  -0.00005  -0.00001   0.00001   0.00003
 102        2PY         0.00002  -0.00005  -0.00001   0.00000   0.00001
 103        2PZ        -0.00000  -0.00001  -0.00001  -0.00000   0.00001
 104        3S         -0.00010   0.00049  -0.00010  -0.00004  -0.00135
 105        3PX         0.00000   0.00020   0.00003  -0.00002  -0.00000
 106        3PY        -0.00007   0.00030   0.00003  -0.00001  -0.00015
 107        3PZ         0.00000  -0.00021   0.00006   0.00001   0.00018
 108        4XX         0.00001  -0.00005   0.00002   0.00000   0.00020
 109        4YY         0.00002  -0.00003   0.00003  -0.00001   0.00011
 110        4ZZ         0.00002  -0.00001   0.00002  -0.00000   0.00015
 111        4XY         0.00001  -0.00003  -0.00001   0.00001  -0.00010
 112        4XZ         0.00000   0.00000  -0.00001  -0.00000   0.00002
 113        4YZ         0.00001  -0.00003   0.00000  -0.00000   0.00001
 114 10  O  1S         -0.00004  -0.00001  -0.00140   0.99274   0.00003
 115        2S         -0.00022  -0.00006  -0.00000   0.02562   0.00015
 116        2PX        -0.00001   0.00001   0.00001   0.00001   0.00002
 117        2PY        -0.00002  -0.00000   0.00004   0.00053   0.00002
 118        2PZ        -0.00005   0.00001   0.00005  -0.00050   0.00003
 119        3S          0.00128   0.00031  -0.00020   0.01255  -0.00082
 120        3PX         0.00000  -0.00001  -0.00006   0.00009  -0.00019
 121        3PY         0.00038   0.00002  -0.00004   0.00042  -0.00039
 122        3PZ         0.00004  -0.00004  -0.00038  -0.00027  -0.00002
 123        4XX        -0.00016  -0.00005   0.00008  -0.00813   0.00010
 124        4YY        -0.00013  -0.00004   0.00006  -0.00812   0.00003
 125        4ZZ        -0.00015  -0.00003   0.00009  -0.00813   0.00010
 126        4XY         0.00006   0.00000  -0.00002   0.00000   0.00003
 127        4XZ         0.00002   0.00000  -0.00001  -0.00000   0.00004
 128        4YZ        -0.00001   0.00000  -0.00005   0.00001   0.00001
 129 11  O  1S          0.99274  -0.00008  -0.00002  -0.00004   0.00002
 130        2S          0.02583   0.00002  -0.00016  -0.00010   0.00013
 131        2PX        -0.00003  -0.00001  -0.00002   0.00002  -0.00003
 132        2PY         0.00002  -0.00001   0.00001   0.00000  -0.00003
 133        2PZ        -0.00093  -0.00000   0.00003  -0.00004   0.00003
 134        3S          0.01217  -0.00013   0.00089   0.00061  -0.00093
 135        3PX         0.00052  -0.00001   0.00026   0.00001  -0.00027
 136        3PY        -0.00035   0.00004  -0.00016  -0.00017   0.00028
 137        3PZ         0.00005   0.00003  -0.00030   0.00022  -0.00012
 138        4XX        -0.00808   0.00001  -0.00006  -0.00007   0.00011
 139        4YY        -0.00811   0.00001  -0.00009  -0.00010   0.00004
 140        4ZZ        -0.00806   0.00000  -0.00012  -0.00010   0.00001
 141        4XY        -0.00000   0.00000   0.00001   0.00001   0.00004
 142        4XZ         0.00004   0.00000  -0.00003   0.00002   0.00001
 143        4YZ        -0.00004  -0.00000  -0.00001   0.00003   0.00001
 144 12  O  1S          0.00008   0.99269   0.00002  -0.00001   0.00006
 145        2S         -0.00001   0.02594   0.00004  -0.00002   0.00027
 146        2PX         0.00001  -0.00041  -0.00001  -0.00000   0.00000
 147        2PY         0.00001  -0.00049  -0.00000  -0.00000   0.00002
 148        2PZ         0.00000   0.00029  -0.00000  -0.00000   0.00001
 149        3S          0.00005   0.01228  -0.00020   0.00007  -0.00150
 150        3PX        -0.00004  -0.00036   0.00004   0.00000   0.00030
 151        3PY        -0.00002  -0.00019   0.00002   0.00001   0.00001
 152        3PZ        -0.00002   0.00024   0.00001   0.00001  -0.00021
 153        4XX        -0.00001  -0.00823   0.00004  -0.00001   0.00018
 154        4YY        -0.00001  -0.00822   0.00003  -0.00002   0.00021
 155        4ZZ        -0.00002  -0.00813   0.00003  -0.00002   0.00011
 156        4XY         0.00000  -0.00002  -0.00000  -0.00000  -0.00004
 157        4XZ         0.00000   0.00001  -0.00000  -0.00000  -0.00001
 158        4YZ         0.00000   0.00006  -0.00000   0.00000   0.00000
 159 13  O  1S         -0.00002   0.00079  -0.00003  -0.00003   0.00004
 160        2S         -0.00004  -0.00000  -0.00006  -0.00005   0.00016
 161        2PX        -0.00001  -0.00001   0.00004   0.00004  -0.00006
 162        2PY        -0.00001  -0.00001  -0.00001   0.00001   0.00001
 163        2PZ        -0.00000   0.00005  -0.00000  -0.00002   0.00001
 164        3S          0.00020   0.00021   0.00022   0.00016  -0.00078
 165        3PX         0.00004   0.00012  -0.00015  -0.00011   0.00033
 166        3PY         0.00005   0.00027   0.00004  -0.00000  -0.00029
 167        3PZ         0.00003  -0.00017   0.00001   0.00006  -0.00015
 168        4XX        -0.00003  -0.00001  -0.00004  -0.00003   0.00013
 169        4YY        -0.00001   0.00002  -0.00006  -0.00005   0.00007
 170        4ZZ        -0.00001  -0.00003  -0.00008  -0.00006   0.00007
 171        4XY         0.00000  -0.00002  -0.00002   0.00001   0.00001
 172        4XZ        -0.00000   0.00003   0.00000  -0.00002   0.00002
 173        4YZ        -0.00000   0.00001   0.00002   0.00001  -0.00002
 174 14  O  1S         -0.00003   0.00000   0.99273   0.00144   0.00005
 175        2S         -0.00006   0.00004   0.02557   0.00014   0.00024
 176        2PX         0.00003  -0.00000   0.00014  -0.00000   0.00001
 177        2PY        -0.00004   0.00002   0.00012   0.00008   0.00006
 178        2PZ         0.00000  -0.00000   0.00068  -0.00000  -0.00001
 179        3S          0.00037  -0.00020   0.01289  -0.00055  -0.00129
 180        3PX        -0.00010   0.00002   0.00020   0.00002  -0.00022
 181        3PY         0.00025  -0.00011   0.00031  -0.00038  -0.00041
 182        3PZ         0.00018  -0.00001   0.00053   0.00018  -0.00021
 183        4XX        -0.00005   0.00003  -0.00817   0.00009   0.00016
 184        4YY        -0.00003   0.00003  -0.00816   0.00005   0.00012
 185        4ZZ        -0.00002   0.00003  -0.00818   0.00014   0.00014
 186        4XY         0.00004  -0.00000   0.00001  -0.00001   0.00003
 187        4XZ         0.00002   0.00001  -0.00000   0.00001  -0.00002
 188        4YZ        -0.00000  -0.00001   0.00002  -0.00001  -0.00005
 189 15  H  1S         -0.00003   0.00001  -0.00008   0.00006  -0.00019
 190        2S         -0.00006  -0.00004   0.00003   0.00002  -0.00037
 191        3PX        -0.00001  -0.00002   0.00001  -0.00002  -0.00001
 192        3PY         0.00001  -0.00000  -0.00000  -0.00002  -0.00004
 193        3PZ         0.00001   0.00001   0.00000  -0.00000  -0.00001
 194 16  H  1S          0.00029   0.00001  -0.00007   0.00006   0.00001
 195        2S         -0.00087  -0.00011   0.00041  -0.00032  -0.00063
 196        3PX        -0.00009  -0.00001   0.00002  -0.00002  -0.00009
 197        3PY         0.00008   0.00000  -0.00000   0.00003   0.00002
 198        3PZ        -0.00013   0.00000  -0.00002   0.00004   0.00001
                          11        12        13        14        15
                           O         O         O         O         O
     Eigenvalues --   -10.16124  -6.61450  -6.59066  -4.77785  -4.77751
   1 1   C  1S          0.99296  -0.00002  -0.00003  -0.00002  -0.00006
   2        2S          0.05002  -0.00021  -0.00025   0.00005  -0.00043
   3        2PX        -0.00010  -0.00006   0.00009   0.00004   0.00007
   4        2PY        -0.00008  -0.00008  -0.00002   0.00013  -0.00017
   5        2PZ        -0.00003   0.00007   0.00006  -0.00008   0.00014
   6        3S         -0.01727   0.00115   0.00118  -0.00100   0.00400
   7        3PX         0.00029   0.00142  -0.00155  -0.00067   0.00049
   8        3PY         0.00143  -0.00113  -0.00157   0.00133  -0.00162
   9        3PZ        -0.00086   0.00049   0.00080   0.00036   0.00208
  10        4XX        -0.00883   0.00002  -0.00006  -0.00005   0.00000
  11        4YY        -0.00901   0.00011   0.00010  -0.00028   0.00001
  12        4ZZ        -0.00892   0.00001  -0.00000   0.00003   0.00012
  13        4XY         0.00001  -0.00012   0.00008   0.00007  -0.00015
  14        4XZ        -0.00001   0.00012  -0.00011  -0.00001   0.00012
  15        4YZ         0.00016  -0.00006  -0.00009  -0.00003  -0.00017
  16 2   H  1S         -0.00006  -0.00014  -0.00019   0.00018  -0.00010
  17        2S          0.00244   0.00034   0.00077  -0.00014   0.00054
  18        3PX        -0.00002  -0.00004   0.00002  -0.00004  -0.00002
  19        3PY        -0.00014   0.00002  -0.00002   0.00005   0.00005
  20        3PZ        -0.00020   0.00003   0.00007  -0.00006  -0.00001
  21 3   H  1S         -0.00013  -0.00022   0.00012   0.00007  -0.00027
  22        2S          0.00229   0.00027   0.00086  -0.00032   0.00085
  23        3PX         0.00020  -0.00001  -0.00003   0.00001  -0.00001
  24        3PY         0.00008  -0.00007   0.00002  -0.00000  -0.00015
  25        3PZ         0.00006   0.00005  -0.00006  -0.00002   0.00001
  26 4   C  1S         -0.00211   0.00019   0.00012  -0.00001   0.00007
  27        2S         -0.00016   0.00120   0.00088  -0.00014   0.00049
  28        2PX        -0.00001   0.00001   0.00005   0.00002   0.00031
  29        2PY        -0.00010  -0.00003  -0.00005   0.00002   0.00051
  30        2PZ         0.00002  -0.00007  -0.00005   0.00030  -0.00007
  31        3S          0.00351  -0.00591  -0.00470   0.00011  -0.00331
  32        3PX         0.00024  -0.00243   0.00186  -0.00029  -0.00296
  33        3PY         0.00200   0.00054   0.00041  -0.00053  -0.00531
  34        3PZ        -0.00131   0.00011  -0.00035  -0.00445   0.00085
  35        4XX        -0.00010   0.00001   0.00011   0.00004  -0.00007
  36        4YY        -0.00029   0.00024   0.00020   0.00004   0.00020
  37        4ZZ        -0.00019   0.00021   0.00012  -0.00024  -0.00009
  38        4XY         0.00001   0.00019  -0.00012  -0.00001  -0.00006
  39        4XZ        -0.00002   0.00001   0.00000  -0.00037   0.00004
  40        4YZ         0.00011  -0.00002   0.00001  -0.00006   0.00014
  41 5   O  1S         -0.00001  -0.00003  -0.00009  -0.00004  -0.00003
  42        2S         -0.00008  -0.00020  -0.00042  -0.00026  -0.00017
  43        2PX        -0.00002  -0.00003   0.00012   0.00012  -0.00000
  44        2PY        -0.00004  -0.00003   0.00003  -0.00004  -0.00012
  45        2PZ         0.00007   0.00003  -0.00001   0.00002   0.00000
  46        3S         -0.00006   0.00137   0.00229   0.00215   0.00145
  47        3PX        -0.00000   0.00059  -0.00113  -0.00046   0.00028
  48        3PY         0.00016  -0.00031  -0.00051  -0.00032   0.00076
  49        3PZ        -0.00018  -0.00084  -0.00085  -0.00117  -0.00084
  50        4XX        -0.00018  -0.00006  -0.00024  -0.00013  -0.00004
  51        4YY        -0.00000  -0.00003  -0.00021  -0.00001  -0.00024
  52        4ZZ         0.00005  -0.00003  -0.00020   0.00004   0.00010
  53        4XY         0.00001  -0.00004   0.00008   0.00007   0.00004
  54        4XZ         0.00000  -0.00012   0.00012   0.00002  -0.00015
  55        4YZ        -0.00007   0.00004   0.00009   0.00010  -0.00013
  56 6   H  1S          0.00006  -0.00003  -0.00006   0.00024   0.00011
  57        2S          0.00011   0.00097   0.00071   0.00124   0.00011
  58        3PX        -0.00004   0.00006  -0.00006   0.00012  -0.00001
  59        3PY        -0.00000  -0.00011   0.00006  -0.00011   0.00004
  60        3PZ         0.00001  -0.00002  -0.00006  -0.00002   0.00004
  61 7   P  1S         -0.00000  -0.27421  -0.00002   0.00023  -0.00006
  62        2S         -0.00005   1.02394  -0.00008  -0.00096   0.00019
  63        2PX        -0.00000   0.00204   0.00002   0.25366   0.42756
  64        2PY         0.00002  -0.00124   0.00001  -0.06986   0.89338
  65        2PZ         0.00001   0.00022   0.00000   0.95613  -0.04819
  66        3S         -0.00008   0.07482  -0.00070  -0.00026  -0.00026
  67        3PX         0.00002  -0.00031  -0.00002   0.00737   0.01354
  68        3PY        -0.00030   0.00025  -0.00007  -0.00185   0.02849
  69        3PZ        -0.00002   0.00022  -0.00003   0.03029  -0.00135
  70        4S          0.00040  -0.00969   0.00256   0.00200   0.00155
  71        4PX        -0.00032   0.00148  -0.00168  -0.00216  -0.00222
  72        4PY        -0.00005  -0.00011  -0.00100   0.00086  -0.00337
  73        4PZ        -0.00010  -0.00010   0.00000  -0.00407   0.00073
  74        5XX        -0.00012  -0.01749   0.00025  -0.00044   0.00098
  75        5YY        -0.00011  -0.01703  -0.00002  -0.00124  -0.00041
  76        5ZZ        -0.00009  -0.01691  -0.00001   0.00179  -0.00037
  77        5XY         0.00001   0.00025   0.00001  -0.00053   0.00076
  78        5XZ         0.00002  -0.00012  -0.00004   0.00078  -0.00085
  79        5YZ         0.00001   0.00010   0.00003  -0.00090  -0.00156
  80 8   P  1S         -0.00001  -0.00000  -0.27421   0.00000   0.00000
  81        2S         -0.00013  -0.00014   1.02402   0.00007   0.00007
  82        2PX         0.00002  -0.00002  -0.00259  -0.00008  -0.00018
  83        2PY        -0.00001   0.00000   0.00251   0.00001  -0.00006
  84        2PZ         0.00000   0.00000   0.00122   0.00018  -0.00007
  85        3S         -0.00055  -0.00067   0.07514   0.00034   0.00051
  86        3PX        -0.00019   0.00002   0.00021  -0.00002  -0.00057
  87        3PY        -0.00008  -0.00002   0.00098   0.00003  -0.00034
  88        3PZ        -0.00005  -0.00003   0.00018   0.00023  -0.00011
  89        4S          0.00229   0.00247  -0.01299  -0.00224  -0.00407
  90        4PX         0.00013   0.00179  -0.00212  -0.00109  -0.00169
  91        4PY         0.00150  -0.00066  -0.00205  -0.00027  -0.00021
  92        4PZ        -0.00054  -0.00015   0.00082   0.00207   0.00009
  93        5XX        -0.00010   0.00027  -0.01722  -0.00009  -0.00045
  94        5YY        -0.00007  -0.00012  -0.01704   0.00009   0.00002
  95        5ZZ        -0.00005  -0.00000  -0.01712   0.00002  -0.00007
  96        5XY        -0.00004   0.00005  -0.00013  -0.00004  -0.00012
  97        5XZ        -0.00001   0.00001   0.00007   0.00017  -0.00009
  98        5YZ        -0.00002  -0.00004  -0.00006   0.00010  -0.00004
  99 9   O  1S         -0.00000  -0.00006   0.00004  -0.00036   0.00011
 100        2S         -0.00001   0.00062   0.00018   0.00163   0.00011
 101        2PX         0.00000  -0.00009  -0.00002  -0.00031   0.00008
 102        2PY         0.00002   0.00014  -0.00004   0.00030   0.00016
 103        2PZ        -0.00000  -0.00051  -0.00000  -0.00108   0.00012
 104        3S          0.00001  -0.00368  -0.00096  -0.00737  -0.00059
 105        3PX         0.00001   0.00034   0.00029   0.00128  -0.00047
 106        3PY        -0.00001  -0.00061   0.00014  -0.00129  -0.00110
 107        3PZ        -0.00002   0.00240   0.00007   0.00451  -0.00036
 108        4XX         0.00001   0.00031   0.00011   0.00057   0.00021
 109        4YY        -0.00002   0.00029   0.00007   0.00052   0.00004
 110        4ZZ         0.00001   0.00074   0.00012   0.00101   0.00014
 111        4XY         0.00000   0.00001   0.00001   0.00001   0.00004
 112        4XZ         0.00001   0.00016  -0.00002   0.00020   0.00021
 113        4YZ        -0.00002  -0.00010  -0.00005  -0.00008   0.00050
 114 10  O  1S         -0.00004   0.00003  -0.00014  -0.00000  -0.00000
 115        2S         -0.00014   0.00016   0.00060   0.00001  -0.00004
 116        2PX        -0.00001  -0.00002  -0.00006  -0.00009   0.00007
 117        2PY         0.00001  -0.00002   0.00050   0.00000   0.00003
 118        2PZ         0.00002  -0.00004  -0.00054   0.00006   0.00001
 119        3S          0.00068  -0.00096  -0.00346  -0.00022   0.00049
 120        3PX         0.00004  -0.00010   0.00039   0.00036  -0.00011
 121        3PY        -0.00005   0.00002  -0.00151  -0.00009  -0.00003
 122        3PZ        -0.00011   0.00024   0.00172  -0.00031  -0.00010
 123        4XX        -0.00012   0.00012   0.00013  -0.00001  -0.00003
 124        4YY        -0.00012   0.00008   0.00060  -0.00004   0.00003
 125        4ZZ        -0.00011   0.00004   0.00052   0.00002   0.00005
 126        4XY         0.00002  -0.00001   0.00007   0.00003  -0.00003
 127        4XZ        -0.00001   0.00002  -0.00004  -0.00000  -0.00002
 128        4YZ        -0.00002  -0.00004  -0.00046  -0.00001   0.00006
 129 11  O  1S          0.00006   0.00001   0.00001   0.00001  -0.00002
 130        2S          0.00025   0.00001   0.00043   0.00004  -0.00009
 131        2PX         0.00005   0.00006  -0.00001  -0.00006  -0.00005
 132        2PY        -0.00001   0.00004  -0.00015  -0.00004  -0.00000
 133        2PZ         0.00000  -0.00001  -0.00011   0.00006  -0.00001
 134        3S         -0.00116   0.00006  -0.00283  -0.00033   0.00043
 135        3PX        -0.00048  -0.00024  -0.00056   0.00022   0.00032
 136        3PY         0.00015  -0.00016   0.00139   0.00020  -0.00005
 137        3PZ        -0.00003   0.00002   0.00138  -0.00032   0.00006
 138        4XX         0.00013  -0.00000   0.00036   0.00006  -0.00006
 139        4YY         0.00018   0.00004   0.00025   0.00001  -0.00007
 140        4ZZ         0.00020   0.00003   0.00002   0.00007  -0.00008
 141        4XY        -0.00002  -0.00000   0.00013   0.00001  -0.00001
 142        4XZ         0.00004   0.00001  -0.00015  -0.00002  -0.00002
 143        4YZ        -0.00004   0.00001   0.00010   0.00001   0.00001
 144 12  O  1S         -0.00003  -0.00008  -0.00000   0.00017  -0.00045
 145        2S         -0.00012   0.00069  -0.00001  -0.00033   0.00134
 146        2PX         0.00007  -0.00038  -0.00008   0.00030  -0.00077
 147        2PY         0.00001  -0.00045   0.00001   0.00027  -0.00068
 148        2PZ         0.00001   0.00026  -0.00002   0.00002   0.00056
 149        3S          0.00045  -0.00399   0.00021   0.00137  -0.00598
 150        3PX        -0.00020   0.00146   0.00033  -0.00117   0.00281
 151        3PY        -0.00012   0.00186   0.00001  -0.00110   0.00228
 152        3PZ         0.00005  -0.00110   0.00012  -0.00050  -0.00223
 153        4XX        -0.00006   0.00052  -0.00003   0.00010   0.00052
 154        4YY        -0.00012   0.00052  -0.00002  -0.00000   0.00075
 155        4ZZ        -0.00013   0.00038   0.00002  -0.00039   0.00026
 156        4XY         0.00002   0.00031  -0.00002   0.00007   0.00042
 157        4XZ        -0.00001  -0.00021   0.00001   0.00023  -0.00012
 158        4YZ        -0.00004  -0.00018  -0.00000   0.00031  -0.00016
 159 13  O  1S          0.00004  -0.00011   0.00004   0.00029   0.00040
 160        2S          0.00016   0.00059   0.00019  -0.00060  -0.00120
 161        2PX        -0.00003   0.00009   0.00009  -0.00005  -0.00004
 162        2PY         0.00005   0.00054  -0.00001  -0.00061  -0.00084
 163        2PZ        -0.00000   0.00037   0.00005  -0.00020  -0.00067
 164        3S         -0.00075  -0.00337  -0.00128   0.00259   0.00527
 165        3PX         0.00010  -0.00046  -0.00027   0.00020   0.00001
 166        3PY        -0.00023  -0.00208  -0.00012   0.00227   0.00277
 167        3PZ        -0.00005  -0.00141  -0.00031   0.00033   0.00254
 168        4XX         0.00015   0.00017   0.00020  -0.00002  -0.00028
 169        4YY         0.00012   0.00065   0.00008  -0.00003  -0.00092
 170        4ZZ         0.00015   0.00039   0.00003  -0.00049  -0.00024
 171        4XY         0.00002   0.00005  -0.00001  -0.00005  -0.00022
 172        4XZ        -0.00000   0.00004  -0.00000  -0.00012  -0.00008
 173        4YZ        -0.00001   0.00031   0.00001  -0.00036  -0.00021
 174 14  O  1S          0.00006   0.00004  -0.00022  -0.00008  -0.00005
 175        2S          0.00026   0.00018   0.00020  -0.00038  -0.00022
 176        2PX         0.00002   0.00003   0.00006   0.00005  -0.00001
 177        2PY         0.00003  -0.00004   0.00007   0.00001   0.00002
 178        2PZ        -0.00000   0.00002   0.00069   0.00000  -0.00002
 179        3S         -0.00131  -0.00093  -0.00140   0.00216   0.00117
 180        3PX        -0.00012  -0.00029   0.00008   0.00005   0.00022
 181        3PY        -0.00032   0.00013  -0.00005   0.00009  -0.00002
 182        3PZ        -0.00012  -0.00017  -0.00215   0.00022   0.00019
 183        4XX         0.00015   0.00012  -0.00006  -0.00025  -0.00014
 184        4YY         0.00016   0.00008  -0.00011  -0.00017  -0.00011
 185        4ZZ         0.00019   0.00011   0.00055  -0.00024  -0.00013
 186        4XY        -0.00001   0.00000   0.00005  -0.00002  -0.00002
 187        4XZ         0.00001  -0.00003   0.00025   0.00002   0.00001
 188        4YZ        -0.00004   0.00002   0.00017  -0.00000  -0.00001
 189 15  H  1S         -0.00008   0.00009  -0.00022  -0.00009  -0.00012
 190        2S          0.00252   0.00057   0.00038  -0.00041  -0.00001
 191        3PX        -0.00019  -0.00002   0.00003   0.00000  -0.00004
 192        3PY         0.00008   0.00002  -0.00006  -0.00005   0.00002
 193        3PZ         0.00010  -0.00006   0.00004  -0.00001  -0.00006
 194 16  H  1S         -0.00003  -0.00002   0.00056  -0.00012   0.00004
 195        2S         -0.00055   0.00020   0.00135   0.00030   0.00012
 196        3PX        -0.00006   0.00003   0.00014  -0.00000   0.00001
 197        3PY         0.00004   0.00000  -0.00018  -0.00002  -0.00002
 198        3PZ        -0.00005  -0.00001   0.00007  -0.00001   0.00003
                          16        17        18        19        20
                           O         O         O         O         O
     Eigenvalues --    -4.77714  -4.75570  -4.75270  -4.75248  -1.01317
   1 1   C  1S          0.00003  -0.00002  -0.00004  -0.00002  -0.01127
   2        2S          0.00028  -0.00004  -0.00029   0.00014   0.01999
   3        2PX         0.00001   0.00002   0.00004   0.00012   0.00223
   4        2PY         0.00007   0.00015  -0.00006   0.00027  -0.00852
   5        2PZ        -0.00006  -0.00002   0.00005  -0.00017   0.01104
   6        3S         -0.00122  -0.00068   0.00118  -0.00231   0.00938
   7        3PX        -0.00185   0.00000  -0.00177   0.00011  -0.00292
   8        3PY         0.00104  -0.00028  -0.00081   0.00185  -0.00717
   9        3PZ        -0.00068  -0.00122   0.00082  -0.00100   0.00438
  10        4XX        -0.00003  -0.00011  -0.00004  -0.00014  -0.00056
  11        4YY        -0.00008   0.00004   0.00002  -0.00037   0.00065
  12        4ZZ        -0.00001  -0.00017   0.00007  -0.00009   0.00104
  13        4XY         0.00019  -0.00006   0.00013  -0.00017  -0.00027
  14        4XZ        -0.00017   0.00006  -0.00016   0.00009  -0.00002
  15        4YZ         0.00006   0.00009  -0.00009   0.00011  -0.00235
  16 2   H  1S          0.00012  -0.00016  -0.00005   0.00018   0.00293
  17        2S         -0.00047  -0.00022   0.00007  -0.00108   0.00336
  18        3PX         0.00007  -0.00002   0.00009   0.00008   0.00021
  19        3PY        -0.00003  -0.00004   0.00002   0.00008   0.00032
  20        3PZ        -0.00002   0.00003  -0.00003  -0.00011   0.00049
  21 3   H  1S          0.00024   0.00004   0.00007   0.00003   0.00568
  22        2S         -0.00013   0.00020   0.00069   0.00004   0.00886
  23        3PX         0.00002  -0.00006   0.00001  -0.00005  -0.00041
  24        3PY         0.00007   0.00003   0.00002  -0.00011  -0.00089
  25        3PZ        -0.00007   0.00004  -0.00009   0.00002   0.00028
  26 4   C  1S         -0.00016  -0.00003   0.00012   0.00000  -0.05019
  27        2S         -0.00197   0.00004   0.00183  -0.00071   0.08641
  28        2PX        -0.00005   0.00027  -0.00003   0.00006   0.01295
  29        2PY         0.00002  -0.00029  -0.00002  -0.00026   0.01033
  30        2PZ         0.00001  -0.00010   0.00010   0.00035   0.04878
  31        3S          0.00741   0.00081  -0.00799   0.00275   0.06622
  32        3PX         0.00442  -0.00189   0.00411  -0.00260   0.01766
  33        3PY        -0.00090   0.00307   0.00121   0.00158  -0.01617
  34        3PZ         0.00124   0.00117  -0.00294  -0.00359  -0.00723
  35        4XX         0.00044   0.00007  -0.00015   0.00025   0.00006
  36        4YY        -0.00015  -0.00023   0.00016   0.00003  -0.00302
  37        4ZZ        -0.00013   0.00014   0.00005  -0.00006   0.00701
  38        4XY        -0.00057  -0.00018  -0.00050   0.00018  -0.00176
  39        4XZ         0.00001  -0.00014   0.00016   0.00034   0.00145
  40        4YZ         0.00010  -0.00007  -0.00007  -0.00001   0.00421
  41 5   O  1S          0.00009   0.00001  -0.00013   0.00002  -0.10881
  42        2S          0.00050   0.00009  -0.00073   0.00005   0.23624
  43        2PX         0.00003  -0.00001   0.00009  -0.00014   0.03313
  44        2PY         0.00003   0.00015   0.00000  -0.00001  -0.04585
  45        2PZ        -0.00004  -0.00001  -0.00000  -0.00006  -0.03155
  46        3S         -0.00312  -0.00110   0.00445   0.00033   0.23535
  47        3PX        -0.00088   0.00045  -0.00140   0.00100   0.01003
  48        3PY         0.00069  -0.00069  -0.00096  -0.00037  -0.01829
  49        3PZ         0.00146   0.00073  -0.00170   0.00020  -0.02301
  50        4XX         0.00021  -0.00002  -0.00035   0.00009  -0.00302
  51        4YY         0.00013   0.00016  -0.00023   0.00020  -0.00286
  52        4ZZ         0.00011  -0.00011  -0.00021   0.00004   0.00274
  53        4XY         0.00006  -0.00002   0.00007  -0.00012  -0.00273
  54        4XZ         0.00021  -0.00005   0.00021  -0.00011  -0.00001
  55        4YZ        -0.00011   0.00007   0.00017  -0.00000   0.00429
  56 6   H  1S          0.00015  -0.00023  -0.00015  -0.00021   0.07959
  57        2S         -0.00122  -0.00035   0.00106  -0.00020   0.01418
  58        3PX        -0.00001   0.00003  -0.00008   0.00003  -0.00805
  59        3PY         0.00011  -0.00001   0.00002  -0.00013   0.00637
  60        3PZ        -0.00001   0.00001  -0.00009  -0.00005  -0.00663
  61 7   P  1S          0.00059  -0.00000  -0.00001  -0.00000   0.03259
  62        2S         -0.00233  -0.00009  -0.00012   0.00002  -0.14917
[...]
  18         O                -4.752629         14.708121
  19         O                -4.752440         14.708539
  20         O                -1.004374          2.392394
  21         O                -0.988444          2.554485
  22         O                -0.972756          2.647975
  23         O                -0.912812          2.775158
  24         O                -0.907561          2.890234
  25         O                -0.906043          2.898706
  26         O                -0.874041          2.888145
  27         O                -0.726346          1.542343
  28         O                -0.596728          1.758534
  29         O                -0.531144          2.108373
  30         O                -0.496252          1.961297
  31         O                -0.467745          2.093096
  32         O                -0.444033          1.809710
  33         O                -0.403459          2.037969
  34         O                -0.401820          1.845376
  35         O                -0.387022          1.951104
  36         O                -0.378370          1.896529
  37         O                -0.372713          2.148749
  38         O                -0.365519          1.773311
  39         O                -0.348994          1.850935
  40         O                -0.343292          1.961361
  41         O                -0.324076          2.431940
  42         O                -0.296304          2.124235
  43         O                -0.289718          2.072961
  44         O                -0.283196          2.093846
  45         O                -0.270917          2.130538
  46         O                -0.268902          2.104437
  47         O                -0.266245          2.239590
  48         O                -0.252291          2.240179
  49         O                -0.246395          2.187943
  50         O                -0.232515          2.215331
  51         O                -0.220195          2.268826
  52         O                -0.210715          2.267188
  53         V                -0.164955          2.397364
  54         V                 0.092680          1.667627
  55         V                 0.112886          1.937450
  56         V                 0.121238          1.829731
  57         V                 0.132317          1.843193
  58         V                 0.163602          1.511697
  59         V                 0.169308          1.954291
  60         V                 0.176269          2.068238
  61         V                 0.180922          2.119300
  62         V                 0.210498          1.525644
  63         V                 0.215641          2.105029
  64         V                 0.229419          1.864183
  65         V                 0.236521          1.982717
  66         V                 0.263374          1.660910
  67         V                 0.270602          2.435334
  68         V                 0.289069          1.991885
  69         V                 0.340354          2.724936
  70         V                 0.369769          2.475823
  71         V                 0.393725          2.379943
  72         V                 0.419466          2.624603
  73         V                 0.421611          2.649026
  74         V                 0.438488          2.310895
  75         V                 0.467667          2.035890
  76         V                 0.497276          2.351244
  77         V                 0.568463          2.259087
  78         V                 0.591726          2.577270
  79         V                 0.602656          2.081187
  80         V                 0.658937          2.429065
  81         V                 0.668618          2.473431
  82         V                 0.676115          2.531919
  83         V                 0.735986          2.366698
  84         V                 0.744513          2.402099
  85         V                 0.783692          2.435341
  86         V                 0.809813          2.648607
  87         V                 0.818412          2.636028
  88         V                 0.831846          2.524135
  89         V                 0.851829          2.573028
  90         V                 0.856805          2.616322
  91         V                 0.869647          2.498552
  92         V                 0.877182          2.550536
  93         V                 0.921076          2.660611
  94         V                 0.929139          2.548707
  95         V                 0.951163          2.666139
  96         V                 0.954556          2.780369
  97         V                 0.956746          2.736857
  98         V                 0.983128          3.121424
  99         V                 1.009897          3.082165
 100         V                 1.021881          3.224927
 101         V                 1.027839          3.101321
 102         V                 1.052897          3.218293
 103         V                 1.057137          2.900025
 104         V                 1.063505          3.230898
 105         V                 1.068999          3.144183
 106         V                 1.078895          3.307583
 107         V                 1.086249          3.289878
 108         V                 1.100682          3.191086
 109         V                 1.109301          3.377457
 110         V                 1.125519          3.491362
 111         V                 1.147402          3.163862
 112         V                 1.172736          3.292529
 113         V                 1.191405          3.839865
 114         V                 1.204113          3.838458
 115         V                 1.227868          3.951928
 116         V                 1.240449          3.911203
 117         V                 1.253149          3.334715
 118         V                 1.261898          3.244550
 119         V                 1.348516          3.109785
 120         V                 1.368404          2.923701
 121         V                 1.396863          2.699645
 122         V                 1.451835          2.722878
 123         V                 1.453806          2.790525
 124         V                 1.472608          2.740921
 125         V                 1.532986          2.822996
 126         V                 1.566341          2.723016
 127         V                 1.600106          2.663460
 128         V                 1.631140          2.775665
 129         V                 1.655528          2.788264
 130         V                 1.681717          2.786974
 131         V                 1.718096          2.851599
 132         V                 1.770351          2.859174
 133         V                 1.775650          2.854851
 134         V                 1.804446          2.925784
 135         V                 1.821886          2.914754
 136         V                 1.825941          2.891675
 137         V                 1.839152          2.874547
 138         V                 1.854648          2.909682
 139         V                 1.856943          2.899795
 140         V                 1.867043          2.894323
 141         V                 1.878207          2.908698
 142         V                 1.892531          2.938763
 143         V                 1.900362          2.987995
 144         V                 1.904602          3.027396
 145         V                 1.913733          3.036591
 146         V                 1.927411          3.154352
 147         V                 1.943625          3.194499
 148         V                 2.004024          3.249777
 149         V                 2.015873          3.418997
 150         V                 2.033767          3.341094
 151         V                 2.057705          3.384556
 152         V                 2.060793          3.439349
 153         V                 2.069217          3.044860
 154         V                 2.097996          3.250474
 155         V                 2.123989          3.396767
 156         V                 2.136611          3.289677
 157         V                 2.169540          3.421036
 158         V                 2.180609          3.468947
 159         V                 2.224569          3.410265
 160         V                 2.276891          3.562979
 161         V                 2.290248          3.534262
 162         V                 2.308051          3.588428
 163         V                 2.342654          3.552490
 164         V                 2.414719          3.732547
 165         V                 2.454478          3.769582
 166         V                 2.484366          3.776378
 167         V                 2.516522          3.624947
 168         V                 2.530573          4.467414
 169         V                 2.556450          3.764289
 170         V                 2.648474          4.443996
 171         V                 2.671167          3.601409
 172         V                 2.694401          3.730061
 173         V                 2.736234          3.798577
 174         V                 2.765947          4.018076
 175         V                 2.806135          4.712140
 176         V                 2.811943          4.444326
 177         V                 2.820972          4.679393
 178         V                 2.852162          4.391834
 179         V                 2.879002          4.675057
 180         V                 2.895678          3.981805
 181         V                 2.981661          4.386154
 182         V                 3.026791          4.474723
 183         V                 3.231894          4.946196
 184         V                 3.415398          6.449650
 185         V                 3.455412          5.288405
 186         V                 3.463834          5.715218
 187         V                 3.494166          7.424422
 188         V                 3.556830          8.405043
 189         V                 3.608448          9.977060
 190         V                 3.785922         10.189163
 191         V                 3.790548         10.179608
 192         V                 3.897675          9.757516
 193         V                 3.945340         10.355212
 194         V                 4.009610         10.763008
 195         V                 4.097297         10.509905
 196         V                 4.217698         10.795522
 197         V                 4.407672         10.586175
 198         V                 4.598223         10.308964
 Total kinetic energy from orbitals= 1.280857050060D+03
                          Isotropic Fermi Contact Couplings
        Atom                 a.u.       MegaHertz       Gauss      10(-4) cm-1
     1  C(13)             -0.00173      -1.94049      -0.69241      -0.64728
     2  H(1)               0.00014       0.62408       0.22269       0.20817
     3  H(1)               0.00037       1.65320       0.58990       0.55145
     4  C(13)             -0.00434      -4.87721      -1.74031      -1.62686
     5  O(17)              0.00390      -2.36214      -0.84287      -0.78793
     6  H(1)              -0.00036      -1.60181      -0.57156      -0.53431
     7  P(31)             -0.04635     -83.94934     -29.95521     -28.00249
     8  P(31)              0.00360       6.52557       2.32849       2.17670
     9  O(17)              0.02563     -15.53841      -5.54449      -5.18305
    10  O(17)             -0.00084       0.50941       0.18177       0.16992
    11  O(17)              0.00025      -0.15293      -0.05457      -0.05101
    12  O(17)              0.02416     -14.64280      -5.22492      -4.88431
    13  O(17)              0.02404     -14.57337      -5.20014      -4.86115
    14  O(17)              0.00125      -0.76077      -0.27146      -0.25376
    15  H(1)               0.00059       2.63031       0.93856       0.87738
    16  H(1)              -0.00006      -0.29025      -0.10357      -0.09682
 --------------------------------------------------------
       Center         ----  Spin Dipole Couplings  ----
                      3XX-RR        3YY-RR        3ZZ-RR
 --------------------------------------------------------
     1   Atom        0.001222     -0.000400     -0.000822
     2   Atom        0.001297     -0.000383     -0.000915
     3   Atom        0.000466      0.002775     -0.003241
     4   Atom        0.046955     -0.025168     -0.021787
     5   Atom        0.122503     -0.055303     -0.067200
     6   Atom        0.004592      0.002706     -0.007298
     7   Atom        0.033845     -0.010936     -0.022908
     8   Atom        0.009695      0.003516     -0.013212
     9   Atom       -0.086526      0.689263     -0.602737
    10   Atom        0.001723      0.005553     -0.007275
    11   Atom        0.011537     -0.007930     -0.003608
    12   Atom       -0.671111     -0.257650      0.928761
    13   Atom       -0.611961      0.040656      0.571305
    14   Atom        0.034862     -0.001135     -0.033727
    15   Atom        0.000733      0.000689     -0.001422
    16   Atom        0.001488     -0.000973     -0.000516
 --------------------------------------------------------
                        XY            XZ            YZ
 --------------------------------------------------------
     1   Atom       -0.003489      0.000041     -0.001337
     2   Atom       -0.002070      0.002083     -0.001736
     3   Atom       -0.004868      0.000397     -0.001396
     4   Atom        0.001015     -0.006912     -0.000632
     5   Atom        0.072488     -0.049344     -0.016840
     6   Atom       -0.014898     -0.002873      0.000243
     7   Atom       -0.016119     -0.004659      0.001905
     8   Atom        0.017061      0.005481      0.005287
     9   Atom        0.824983      0.127213      0.218212
    10   Atom        0.013274     -0.003958     -0.004721
    11   Atom       -0.005793     -0.009758      0.002571
    12   Atom       -0.027472     -0.016766      0.816347
    13   Atom        0.163319     -0.224120     -0.954574
    14   Atom        0.045680      0.006236      0.003193
    15   Atom       -0.002173      0.000587     -0.000779
    16   Atom       -0.001074      0.000486     -0.000220
 --------------------------------------------------------


 ---------------------------------------------------------------------------------
              Anisotropic Spin Dipole Couplings in Principal Axis System
 ---------------------------------------------------------------------------------

       Atom             a.u.   MegaHertz   Gauss  10(-4) cm-1        Axes

              Baa    -0.0036    -0.478    -0.171    -0.160  0.5474  0.7554  0.3600
     1 C(13)  Bbb    -0.0006    -0.078    -0.028    -0.026 -0.3602 -0.1756  0.9162
              Bcc     0.0041     0.557     0.199     0.186  0.7553 -0.6313  0.1760
 
              Baa    -0.0024    -1.305    -0.466    -0.435 -0.1702  0.5289  0.8314
     2 H(1)   Bbb    -0.0017    -0.902    -0.322    -0.301  0.6742  0.6779 -0.2933
              Bcc     0.0041     2.207     0.788     0.736  0.7187 -0.5106  0.4719
 
              Baa    -0.0040    -2.108    -0.752    -0.703  0.4889  0.5019  0.7135
     3 H(1)   Bbb    -0.0029    -1.522    -0.543    -0.508 -0.6246 -0.3696  0.6880
              Bcc     0.0068     3.630     1.295     1.211 -0.6090  0.7820 -0.1327
 
              Baa    -0.0253    -3.393    -1.211    -1.132  0.0039  0.9827  0.1854
     4 C(13)  Bbb    -0.0224    -3.003    -1.071    -1.002  0.1002 -0.1849  0.9776
              Bcc     0.0477     6.395     2.282     2.133  0.9950  0.0147 -0.0992
 
              Baa    -0.0813     5.884     2.100     1.963 -0.3820  0.8784 -0.2873
     5 O(17)  Bbb    -0.0789     5.712     2.038     1.905  0.1025  0.3492  0.9314
              Bcc     0.1603   -11.596    -4.138    -3.868  0.9185  0.3263 -0.2234
 
              Baa    -0.0120    -6.396    -2.282    -2.133  0.6560  0.6591  0.3678
     6 H(1)   Bbb    -0.0068    -3.621    -1.292    -1.208 -0.1922 -0.3254  0.9258
              Bcc     0.0188    10.016     3.574     3.341  0.7299 -0.6781 -0.0867
 
              Baa    -0.0233    -5.044    -1.800    -1.683  0.0600 -0.0749  0.9954
     7 P(31)  Bbb    -0.0161    -3.484    -1.243    -1.162  0.3111  0.9489  0.0527
              Bcc     0.0394     8.528     3.043     2.845  0.9485 -0.3065 -0.0802
 
              Baa    -0.0148    -3.194    -1.140    -1.065 -0.0626 -0.2228  0.9729
     8 P(31)  Bbb    -0.0107    -2.305    -0.822    -0.769 -0.6570  0.7429  0.1279
              Bcc     0.0254     5.499     1.962     1.834  0.7512  0.6312  0.1929
 
              Baa    -0.6402    46.322    16.529    15.451  0.1858 -0.2703  0.9447
     9 O(17)  Bbb    -0.6073    43.941    15.679    14.657  0.8271 -0.4760 -0.2989
              Bcc     1.2474   -90.263   -32.208   -30.109  0.5305  0.8369  0.1352
 
              Baa    -0.0098     0.708     0.253     0.236  0.7392 -0.6675 -0.0898
    10 O(17)  Bbb    -0.0087     0.632     0.226     0.211  0.2211  0.1146  0.9685
              Bcc     0.0185    -1.340    -0.478    -0.447  0.6362  0.7358 -0.2323
 
              Baa    -0.0095     0.690     0.246     0.230  0.2968  0.9520  0.0756
    11 O(17)  Bbb    -0.0083     0.603     0.215     0.201  0.3868 -0.1922  0.9019
              Bcc     0.0179    -1.293    -0.461    -0.431  0.8731 -0.2384 -0.4252
 
              Baa    -0.6894    49.886    17.801    16.640  0.6850  0.6533 -0.3225
    12 O(17)  Bbb    -0.6556    47.441    16.928    15.824  0.7284 -0.6058  0.3199
              Bcc     1.3450   -97.326   -34.729   -32.465 -0.0136  0.4540  0.8909
 
              Baa    -0.6857    49.615    17.704    16.550  0.1576  0.7727  0.6149
    13 O(17)  Bbb    -0.6505    47.072    16.796    15.701  0.9774 -0.2109  0.0145
              Bcc     1.3362   -96.687   -34.500   -32.251 -0.1409 -0.5987  0.7885
 
              Baa    -0.0345     2.499     0.892     0.834 -0.2520  0.2554  0.9334
    14 O(17)  Bbb    -0.0319     2.309     0.824     0.770 -0.5059  0.7875 -0.3520
              Bcc     0.0664    -4.808    -1.716    -1.604  0.8250  0.5609  0.0692
 
              Baa    -0.0017    -0.910    -0.325    -0.304  0.2181  0.4752  0.8524
    15 H(1)   Bbb    -0.0014    -0.739    -0.264    -0.246  0.6898  0.5428 -0.4791
              Bcc     0.0031     1.649     0.588     0.550 -0.6903  0.6925 -0.2094
 
              Baa    -0.0014    -0.735    -0.262    -0.245  0.3438  0.9379  0.0457
    16 H(1)   Bbb    -0.0006    -0.334    -0.119    -0.112 -0.2096  0.0291  0.9774
              Bcc     0.0020     1.069     0.381     0.357  0.9154 -0.3456  0.2066
 

 ---------------------------------------------------------------------------------


 Test job not archived.
 1\1\GINC-BATAGIN2\SP\UB3LYP\6-31G(d,p)\C2H5O7P2(2-,2)\ORISON\09-Feb-20
 21\0\\#t B3LYP/6-31G(d,p) scrf=(solvent=water) # Gfinput IOP(6/7=3) Po
 p=hirshfeld Density Test # Units(Ang,Deg)\\eti-3dp-opt-g09.log\\-2,2\C
 ,0,-0.07675,1.85793,-0.84048\H,0,-0.17799,1.53203,-1.88011\H,0,0.83484
 ,2.45444,-0.75806\C,0,0.01146,0.65753,0.10442\O,0,0.05161,1.1605,1.465
 16\H,0,0.76695,0.57192,1.83095\P,0,1.6892,-0.2733,-0.09639\P,0,-1.5226
 6,-0.38455,-0.06458\O,0,2.00059,-0.53782,1.41531\O,0,-1.56086,-1.5035,
 0.96005\O,0,-2.72143,0.71262,0.42851\O,0,2.65623,0.73981,-0.74393\O,0,
 1.48873,-1.55721,-0.92266\O,0,-1.84917,-0.67913,-1.52412\H,0,-0.94528,
 2.48389,-0.59895\H,0,-3.11049,1.05044,-0.38959\\Version=EM64L-G16RevA.
 03\State=2-A\HF=-1288.8676793\S2=0.760311\S2-1=0.\S2A=0.75007\RMSD=7.6
 04e-09\Dipole=-0.0643472,2.7437523,-0.4002313\Quadrupole=-10.2027164,5
 .5751342,4.6275822,-5.980579,3.3010931,-2.6740376\PG=C01 [X(C2H5O7P2)]
 \\@


 "PERFECTION IS NOT AN ACCIDENT"
         --  EAGLE ELECTRIC MANUFACTURING CO.,INC. NY
 Job cpu time:       0 days  0 hours 11 minutes 57.7 seconds.
 Elapsed time:       0 days  0 hours  1 minutes 29.9 seconds.
 File lengths (MBytes):  RWF=     86 Int=      0 D2E=      0 Chk=      4 Scr=      1
 Normal termination of Gaussian 16 at Tue Feb  9 22:25:11 2021.
