 Entering Gaussian System, Link 0=g16
 Input=w-risendronate_cation_scf_g09.com
 Output=w-risendronate_cation_scf_g09.log
 Initial command:
 /usr/local//g16/l1.exe "/home/orison/scrgauss/Gau-23441.inp" -scrdir="/home/orison/scrgauss/"
 Entering Link 1 = /usr/local//g16/l1.exe PID=     23443.
  
 Copyright (c) 1988,1990,1992,1993,1995,1998,2003,2009,2016,
            Gaussian, Inc.  All Rights Reserved.
  
 This is part of the Gaussian(R) 16 program.  It is based on
 the Gaussian(R) 09 system (copyright 2009, Gaussian, Inc.),
 the Gaussian(R) 03 system (copyright 2003, Gaussian, Inc.),
 the Gaussian(R) 98 system (copyright 1998, Gaussian, Inc.),
 the Gaussian(R) 94 system (copyright 1995, Gaussian, Inc.),
 the Gaussian 92(TM) system (copyright 1992, Gaussian, Inc.),
 the Gaussian 90(TM) system (copyright 1990, Gaussian, Inc.),
 the Gaussian 88(TM) system (copyright 1988, Gaussian, Inc.),
 the Gaussian 86(TM) system (copyright 1986, Carnegie Mellon
 University), and the Gaussian 82(TM) system (copyright 1983,
 Carnegie Mellon University). Gaussian is a federally registered
 trademark of Gaussian, Inc.
  
 This software contains proprietary and confidential information,
 including trade secrets, belonging to Gaussian, Inc.
  
 This software is provided under written license and may be
 used, copied, transmitted, or stored only in accord with that
 written license.
  
 The following legend is applicable only to US Government
 contracts under FAR:
  
                    RESTRICTED RIGHTS LEGEND
  
 Use, reproduction and disclosure by the US Government is
 subject to restrictions as set forth in subparagraphs (a)
 and (c) of the Commercial Computer Software - Restricted
 Rights clause in FAR 52.227-19.
  
 Gaussian, Inc.
 340 Quinnipiac St., Bldg. 40, Wallingford CT 06492
  
  
 ---------------------------------------------------------------
 Warning -- This program may not be used in any manner that
 competes with the business of Gaussian, Inc. or will provide
 assistance to any competitor of Gaussian, Inc.  The licensee
 of this program is prohibited from giving any competitor of
 Gaussian, Inc. access to this program.  By using this program,
 the user acknowledges that Gaussian, Inc. is engaged in the
 business of creating and licensing software in the field of
 computational chemistry and represents and warrants to the
 licensee that it is not a competitor of Gaussian, Inc. and that
 it will not use this program in any manner prohibited above.
 ---------------------------------------------------------------
  

 Cite this work as:
 Gaussian 16, Revision A.03,
 M. J. Frisch, G. W. Trucks, H. B. Schlegel, G. E. Scuseria, 
 M. A. Robb, J. R. Cheeseman, G. Scalmani, V. Barone, 
 G. A. Petersson, H. Nakatsuji, X. Li, M. Caricato, A. V. Marenich, 
 J. Bloino, B. G. Janesko, R. Gomperts, B. Mennucci, H. P. Hratchian, 
 J. V. Ortiz, A. F. Izmaylov, J. L. Sonnenberg, D. Williams-Young, 
 F. Ding, F. Lipparini, F. Egidi, J. Goings, B. Peng, A. Petrone, 
 T. Henderson, D. Ranasinghe, V. G. Zakrzewski, J. Gao, N. Rega, 
 G. Zheng, W. Liang, M. Hada, M. Ehara, K. Toyota, R. Fukuda, 
 J. Hasegawa, M. Ishida, T. Nakajima, Y. Honda, O. Kitao, H. Nakai, 
 T. Vreven, K. Throssell, J. A. Montgomery, Jr., J. E. Peralta, 
 F. Ogliaro, M. J. Bearpark, J. J. Heyd, E. N. Brothers, K. N. Kudin, 
 V. N. Staroverov, T. A. Keith, R. Kobayashi, J. Normand, 
 K. Raghavachari, A. P. Rendell, J. C. Burant, S. S. Iyengar, 
 J. Tomasi, M. Cossi, J. M. Millam, M. Klene, C. Adamo, R. Cammi, 
 J. W. Ochterski, R. L. Martin, K. Morokuma, O. Farkas, 
 J. B. Foresman, and D. J. Fox, Gaussian, Inc., Wallingford CT, 2016.
 
 ******************************************
 Gaussian 16:  EM64L-G16RevA.03 25-Dec-2016
                22-Jan-2021 
 ******************************************
 %nproc=8
 Will use up to    8 processors via shared memory.
 %Mem=4GB
 ----------------------------------------------------------------------
 #t B3LYP/6-31G(d,p) scrf=(solvent=water) # Gfinput IOP(6/7=3) Pop=hirs
 hfeld Density Test # Units(Ang,Deg)
 ----------------------------------------------------------------------
 --------------------------
 w-risendronate-opt-g09.log
 --------------------------
 Symbolic Z-matrix:
 Charge =  1 Multiplicity = 2
 C                     0.67062   0.26051  -0.22272 
 O                     0.45922   0.66161  -1.56466 
 H                     1.18705   0.31717  -2.1066 
 P                     2.40713   0.73272   0.30004 
 P                     0.38903  -1.57927  -0.02406 
 O                     3.19549   0.4303   -1.07506 
 H                     3.95431   1.01728  -1.22263 
 O                     2.42561   2.35184   0.31681 
 H                     2.46108   2.70633   1.21929 
 O                     1.62813  -2.13875  -0.88775 
 H                     1.58884  -3.09366  -1.05918 
 O                    -0.84941  -1.95638  -0.9958 
 H                    -1.69249  -1.97528  -0.51572 
 O                     0.23496  -2.04366   1.38168 
 O                     2.89865   0.09068   1.54817 
 C                    -0.32732   1.04108   0.67394 
 H                    -0.09892   2.10235   0.54125 
 H                    -0.12188   0.78591   1.71721 
 C                    -1.7912    0.80509   0.36906 
 C                    -2.41924   1.38428  -0.74164 
 C                    -2.58473   0.01926   1.21557 
 C                    -3.7733    1.14605  -0.95784 
 H                    -1.85077   2.00915  -1.42222 
 N                    -3.88987  -0.22306   1.02 
 H                    -2.13793  -0.43916   2.09627 
 C                    -4.46355   0.33586  -0.05443 
 H                    -4.28911   1.58059  -1.80763 
 H                    -5.52241   0.13098  -0.19836 
 
                    Distance matrix (angstroms):
                    1          2          3          4          5
     1  C    0.000000
     2  O    1.416465   0.000000
     3  H    1.954204   0.970605   0.000000
     4  P    1.873960   2.697502   2.730054   0.000000
     5  P    1.871777   2.720279   2.927506   3.085947   0.000000
     6  O    2.670259   2.789334   2.260687   1.613651   3.608212
     7  H    3.514988   3.529751   2.988191   2.189352   4.570543
     8  O    2.782938   3.203669   3.398063   1.619312   4.440436
     9  H    3.356661   3.992330   4.288681   2.177858   4.919927
    10  O    2.667497   3.109111   2.776993   3.203596   1.610698
    11  H    3.576765   3.953935   3.590583   4.142253   2.191893
    12  O    2.796917   2.981608   3.248088   4.417637   1.618711
    13  H    3.266327   3.561365   4.009735   4.980523   2.175150
    14  O    2.841320   4.006207   4.318344   3.687350   1.488456
    15  O    2.851142   3.995809   4.042056   1.487157   3.399828
    16  C    1.552151   2.402909   3.247886   2.777068   2.804745
    17  H    2.137339   2.611917   3.442629   2.866070   3.756594
    18  H    2.160424   3.335236   4.068727   2.899499   2.981128
    19  C    2.589851   2.970564   3.903451   4.199521   3.254707
    20  C    3.328569   3.079796   4.000896   4.980309   4.145350
    21  C    3.567097   4.172280   5.035066   5.125026   3.596558
    22  C    4.590535   4.303154   5.158659   6.320666   5.062046
    23  H    3.294533   2.678098   3.543942   4.767092   4.455145
    24  N    4.751448   5.135922   5.986868   6.409685   4.608509
    25  H    3.708801   4.621611   5.412175   5.025666   3.490154
    26  C    5.137480   5.159513   6.011741   6.891255   5.216913
    27  H    5.371543   4.842540   5.627961   7.071123   5.920374
    28  H    6.194432   6.158591   6.978030   7.967942   6.156335
                    6          7          8          9         10
     6  O    0.000000
     7  H    0.970634   0.000000
     8  O    2.494461   2.547126   0.000000
     9  H    3.314168   3.323492   0.970253   0.000000
    10  O    3.015248   3.934944   4.717238   5.348666   0.000000
    11  H    3.872967   4.745734   5.678644   6.292226   0.970971
    12  O    4.697206   5.654187   5.568614   6.132441   2.486592
    13  H    5.476497   6.429735   6.031237   6.494604   3.345392
    14  O    4.573925   5.475888   5.025268   5.248275   2.664635
    15  O    2.661727   3.106499   2.617797   2.672313   3.538119
    16  C    3.980232   4.682937   3.069895   3.293272   4.046477
    17  H    4.032536   4.551629   2.546737   2.716271   4.797048
    18  H    4.350652   5.031055   3.301963   3.256934   4.289754
    19  C    5.205096   5.965684   4.491843   4.734922   4.683757
    20  C    5.704949   6.402201   5.052629   5.423153   5.367895
    21  C    6.231122   7.049816   5.599304   5.716691   5.179686
    22  C    7.006431   7.733217   6.442449   6.785415   6.322204
    23  H    5.298870   5.892588   4.629156   5.104477   5.439989
    24  N    7.417444   8.252211   6.856375   6.996828   6.144730
    25  H    6.265673   7.088844   5.637558   5.640398   5.096684
    26  C    7.727322   8.525807   7.187664   7.429131   6.627721
    27  H    7.607829   8.283328   7.084881   7.482954   7.049354
    28  H    8.766982   9.573029   8.268533   8.507542   7.533734
                   11         12         13         14         15
    11  H    0.000000
    12  O    2.691187   0.000000
    13  H    3.509024   0.970370   0.000000
    14  O    2.982162   2.614553   2.705525   0.000000
    15  O    4.319016   4.970935   5.441176   3.417363   0.000000
    16  C    4.875597   3.470645   3.518154   3.214448   3.474827
    17  H    5.692840   4.404435   4.503745   4.243489   3.747817
    18  H    5.068133   3.925542   3.882906   2.871651   3.104114
    19  C    5.353951   3.221107   2.919424   3.639519   4.888290
    20  C    6.018096   3.699861   3.444684   4.827426   5.932671
    21  C    5.681852   3.435789   2.787767   3.497697   5.493922
    22  C    6.836516   4.263290   3.777293   5.631496   7.204777
    23  H    6.164526   4.112175   4.089313   5.351392   5.921211
    24  N    6.525304   4.038842   3.202685   4.523231   6.816260
    25  H    5.558062   3.677382   3.062772   2.952231   5.093946
    26  C    7.028695   4.382071   3.637709   5.458986   7.538596
    27  H    7.547124   5.000076   4.588647   6.616199   8.071253
    28  H    7.855520   5.179760   4.382389   6.353967   8.600363
                   16         17         18         19         20
    16  C    0.000000
    17  H    1.093649   0.000000
    18  H    1.093494   1.765339   0.000000
    19  C    1.513799   2.139239   2.145811   0.000000
    20  C    2.549075   2.746874   3.417873   1.401267   0.000000
    21  C    2.536411   3.312586   2.627741   1.401356   2.391932
    22  C    3.814250   4.082015   4.540756   2.409489   1.391752
    23  H    2.766215   2.633036   3.787004   2.159165   1.084809
    24  N    3.795994   4.473034   3.962559   2.425950   2.801726
    25  H    2.737232   3.610391   2.389339   2.156765   3.384938
    26  C    4.258668   4.746084   4.710770   2.746084   2.398050
    27  H    4.705852   4.831890   5.515598   3.402783   2.161316
    28  H    5.345853   5.817866   5.767501   3.833839   3.390513
                   21         22         23         24         25
    21  C    0.000000
    22  C    2.721409   0.000000
    23  H    3.384715   2.157942   0.000000
    24  N    1.341774   2.408299   3.886532   0.000000
    25  H    1.088766   3.809844   4.296098   2.067450   0.000000
    26  C    2.289782   1.396067   3.390777   1.340112   3.261085
    27  H    3.805575   1.084909   2.505535   3.377579   4.893608
    28  H    3.262153   2.160223   4.301894   2.067591   4.128570
                   26         27         28
    26  C    0.000000
    27  H    2.157195   0.000000
    28  H    1.088061   2.492418   0.000000
 Framework group  C1[X(C7H11NO7P2)]
 Deg. of freedom    78
                         Standard orientation:                         
 ---------------------------------------------------------------------
 Center     Atomic      Atomic             Coordinates (Angstroms)
 Number     Number       Type             X           Y           Z
 ---------------------------------------------------------------------
      1          6           0       -0.670620   -0.260511   -0.222721
      2          8           0       -0.459220   -0.661611   -1.564661
      3          1           0       -1.187050   -0.317171   -2.106601
      4         15           0       -2.407130   -0.732722    0.300039
      5         15           0       -0.389031    1.579269   -0.024061
      6          8           0       -3.195490   -0.430302   -1.075061
      7          1           0       -3.954310   -1.017282   -1.222631
      8          8           0       -2.425609   -2.351842    0.316809
      9          1           0       -2.461079   -2.706332    1.219289
     10          8           0       -1.628131    2.138749   -0.887751
     11          1           0       -1.588842    3.093659   -1.059181
     12          8           0        0.849409    1.956380   -0.995801
     13          1           0        1.692489    1.975280   -0.515721
     14          8           0       -0.234961    2.043659    1.381679
     15          8           0       -2.898650   -0.090682    1.548169
     16          6           0        0.327320   -1.041081    0.673939
     17          1           0        0.098921   -2.102351    0.541249
     18          1           0        0.121880   -0.785911    1.717209
     19          6           0        1.791200   -0.805090    0.369059
     20          6           0        2.419240   -1.384280   -0.741641
     21          6           0        2.584730   -0.019260    1.215569
     22          6           0        3.773300   -1.146049   -0.957841
     23          1           0        1.850771   -2.009150   -1.422221
     24          7           0        3.889870    0.223061    1.019999
     25          1           0        2.137930    0.439160    2.096269
     26          6           0        4.463550   -0.335859   -0.054431
     27          1           0        4.289110   -1.580589   -1.807631
     28          1           0        5.522410   -0.130979   -0.198361
 ---------------------------------------------------------------------
 Rotational constants (GHZ):           0.6934188           0.2845137           0.2492912
 AO basis set in the form of general basis input (Overlap normalization):
      1 0
 S   6 1.00       0.000000000000
      0.3047524880D+04  0.1834737132D-02
      0.4573695180D+03  0.1403732281D-01
      0.1039486850D+03  0.6884262226D-01
      0.2921015530D+02  0.2321844432D+00
      0.9286662960D+01  0.4679413484D+00
      0.3163926960D+01  0.3623119853D+00
 SP   3 1.00       0.000000000000
      0.7868272350D+01 -0.1193324198D+00  0.6899906659D-01
      0.1881288540D+01 -0.1608541517D+00  0.3164239610D+00
      0.5442492580D+00  0.1143456438D+01  0.7443082909D+00
 SP   1 1.00       0.000000000000
      0.1687144782D+00  0.1000000000D+01  0.1000000000D+01
 D   1 1.00       0.000000000000
      0.8000000000D+00  0.1000000000D+01
 ****
      2 0
 S   6 1.00       0.000000000000
      0.5484671660D+04  0.1831074430D-02
      0.8252349460D+03  0.1395017220D-01
      0.1880469580D+03  0.6844507810D-01
      0.5296450000D+02  0.2327143360D+00
      0.1689757040D+02  0.4701928980D+00
      0.5799635340D+01  0.3585208530D+00
 SP   3 1.00       0.000000000000
      0.1553961625D+02 -0.1107775495D+00  0.7087426823D-01
      0.3599933586D+01 -0.1480262627D+00  0.3397528391D+00
      0.1013761750D+01  0.1130767015D+01  0.7271585773D+00
 SP   1 1.00       0.000000000000
      0.2700058226D+00  0.1000000000D+01  0.1000000000D+01
 D   1 1.00       0.000000000000
      0.8000000000D+00  0.1000000000D+01
 ****
      3 0
 S   3 1.00       0.000000000000
      0.1873113696D+02  0.3349460434D-01
      0.2825394365D+01  0.2347269535D+00
      0.6401216923D+00  0.8137573261D+00
 S   1 1.00       0.000000000000
      0.1612777588D+00  0.1000000000D+01
 P   1 1.00       0.000000000000
      0.1100000000D+01  0.1000000000D+01
 ****
      4 0
 S   6 1.00       0.000000000000
      0.1941330000D+05  0.1851598923D-02
      0.2909420000D+04  0.1420619174D-01
      0.6613640000D+03  0.6999945928D-01
      0.1857590000D+03  0.2400788603D+00
      0.5919430000D+02  0.4847617180D+00
      0.2003100000D+02  0.3351998050D+00
 SP   6 1.00       0.000000000000
      0.3394780000D+03 -0.2782170105D-02  0.4564616191D-02
      0.8101010000D+02 -0.3604990135D-01  0.3369357188D-01
      0.2587800000D+02 -0.1166310044D+00  0.1397548834D+00
      0.9452210000D+01  0.9683280364D-01  0.3393617168D+00
      0.3665660000D+01  0.6144180231D+00  0.4509206237D+00
      0.1467460000D+01  0.4037980152D+00  0.2385858009D+00
 SP   3 1.00       0.000000000000
      0.2156230000D+01 -0.2529241139D+00 -0.1776531273D-01
      0.7489970000D+00  0.3285184468D-01  0.2740581964D+00
      0.2831450000D+00  0.1081254762D+01  0.7854215630D+00
 SP   1 1.00       0.000000000000
      0.9983170000D-01  0.1000000000D+01  0.1000000000D+01
 D   1 1.00       0.000000000000
      0.5500000000D+00  0.1000000000D+01
 ****
      5 0
 S   6 1.00       0.000000000000
      0.1941330000D+05  0.1851598923D-02
      0.2909420000D+04  0.1420619174D-01
      0.6613640000D+03  0.6999945928D-01
      0.1857590000D+03  0.2400788603D+00
      0.5919430000D+02  0.4847617180D+00
      0.2003100000D+02  0.3351998050D+00
 SP   6 1.00       0.000000000000
      0.3394780000D+03 -0.2782170105D-02  0.4564616191D-02
      0.8101010000D+02 -0.3604990135D-01  0.3369357188D-01
      0.2587800000D+02 -0.1166310044D+00  0.1397548834D+00
      0.9452210000D+01  0.9683280364D-01  0.3393617168D+00
      0.3665660000D+01  0.6144180231D+00  0.4509206237D+00
      0.1467460000D+01  0.4037980152D+00  0.2385858009D+00
 SP   3 1.00       0.000000000000
      0.2156230000D+01 -0.2529241139D+00 -0.1776531273D-01
      0.7489970000D+00  0.3285184468D-01  0.2740581964D+00
      0.2831450000D+00  0.1081254762D+01  0.7854215630D+00
 SP   1 1.00       0.000000000000
      0.9983170000D-01  0.1000000000D+01  0.1000000000D+01
 D   1 1.00       0.000000000000
      0.5500000000D+00  0.1000000000D+01
 ****
      6 0
 S   6 1.00       0.000000000000
      0.5484671660D+04  0.1831074430D-02
      0.8252349460D+03  0.1395017220D-01
      0.1880469580D+03  0.6844507810D-01
      0.5296450000D+02  0.2327143360D+00
      0.1689757040D+02  0.4701928980D+00
      0.5799635340D+01  0.3585208530D+00
 SP   3 1.00       0.000000000000
      0.1553961625D+02 -0.1107775495D+00  0.7087426823D-01
      0.3599933586D+01 -0.1480262627D+00  0.3397528391D+00
      0.1013761750D+01  0.1130767015D+01  0.7271585773D+00
 SP   1 1.00       0.000000000000
      0.2700058226D+00  0.1000000000D+01  0.1000000000D+01
 D   1 1.00       0.000000000000
      0.8000000000D+00  0.1000000000D+01
 ****
      7 0
 S   3 1.00       0.000000000000
      0.1873113696D+02  0.3349460434D-01
      0.2825394365D+01  0.2347269535D+00
      0.6401216923D+00  0.8137573261D+00
 S   1 1.00       0.000000000000
      0.1612777588D+00  0.1000000000D+01
 P   1 1.00       0.000000000000
      0.1100000000D+01  0.1000000000D+01
 ****
      8 0
 S   6 1.00       0.000000000000
      0.5484671660D+04  0.1831074430D-02
      0.8252349460D+03  0.1395017220D-01
      0.1880469580D+03  0.6844507810D-01
      0.5296450000D+02  0.2327143360D+00
      0.1689757040D+02  0.4701928980D+00
      0.5799635340D+01  0.3585208530D+00
 SP   3 1.00       0.000000000000
      0.1553961625D+02 -0.1107775495D+00  0.7087426823D-01
      0.3599933586D+01 -0.1480262627D+00  0.3397528391D+00
      0.1013761750D+01  0.1130767015D+01  0.7271585773D+00
 SP   1 1.00       0.000000000000
      0.2700058226D+00  0.1000000000D+01  0.1000000000D+01
 D   1 1.00       0.000000000000
      0.8000000000D+00  0.1000000000D+01
 ****
      9 0
 S   3 1.00       0.000000000000
      0.1873113696D+02  0.3349460434D-01
      0.2825394365D+01  0.2347269535D+00
      0.6401216923D+00  0.8137573261D+00
 S   1 1.00       0.000000000000
      0.1612777588D+00  0.1000000000D+01
 P   1 1.00       0.000000000000
      0.1100000000D+01  0.1000000000D+01
 ****
     10 0
 S   6 1.00       0.000000000000
      0.5484671660D+04  0.1831074430D-02
      0.8252349460D+03  0.1395017220D-01
      0.1880469580D+03  0.6844507810D-01
      0.5296450000D+02  0.2327143360D+00
      0.1689757040D+02  0.4701928980D+00
      0.5799635340D+01  0.3585208530D+00
 SP   3 1.00       0.000000000000
      0.1553961625D+02 -0.1107775495D+00  0.7087426823D-01
      0.3599933586D+01 -0.1480262627D+00  0.3397528391D+00
      0.1013761750D+01  0.1130767015D+01  0.7271585773D+00
 SP   1 1.00       0.000000000000
      0.2700058226D+00  0.1000000000D+01  0.1000000000D+01
 D   1 1.00       0.000000000000
      0.8000000000D+00  0.1000000000D+01
 ****
     11 0
 S   3 1.00       0.000000000000
      0.1873113696D+02  0.3349460434D-01
      0.2825394365D+01  0.2347269535D+00
      0.6401216923D+00  0.8137573261D+00
 S   1 1.00       0.000000000000
      0.1612777588D+00  0.1000000000D+01
 P   1 1.00       0.000000000000
      0.1100000000D+01  0.1000000000D+01
 ****
     12 0
 S   6 1.00       0.000000000000
      0.5484671660D+04  0.1831074430D-02
      0.8252349460D+03  0.1395017220D-01
      0.1880469580D+03  0.6844507810D-01
      0.5296450000D+02  0.2327143360D+00
      0.1689757040D+02  0.4701928980D+00
      0.5799635340D+01  0.3585208530D+00
 SP   3 1.00       0.000000000000
      0.1553961625D+02 -0.1107775495D+00  0.7087426823D-01
      0.3599933586D+01 -0.1480262627D+00  0.3397528391D+00
      0.1013761750D+01  0.1130767015D+01  0.7271585773D+00
 SP   1 1.00       0.000000000000
      0.2700058226D+00  0.1000000000D+01  0.1000000000D+01
 D   1 1.00       0.000000000000
      0.8000000000D+00  0.1000000000D+01
 ****
     13 0
 S   3 1.00       0.000000000000
      0.1873113696D+02  0.3349460434D-01
      0.2825394365D+01  0.2347269535D+00
      0.6401216923D+00  0.8137573261D+00
 S   1 1.00       0.000000000000
      0.1612777588D+00  0.1000000000D+01
 P   1 1.00       0.000000000000
      0.1100000000D+01  0.1000000000D+01
 ****
     14 0
 S   6 1.00       0.000000000000
      0.5484671660D+04  0.1831074430D-02
      0.8252349460D+03  0.1395017220D-01
      0.1880469580D+03  0.6844507810D-01
      0.5296450000D+02  0.2327143360D+00
      0.1689757040D+02  0.4701928980D+00
      0.5799635340D+01  0.3585208530D+00
 SP   3 1.00       0.000000000000
      0.1553961625D+02 -0.1107775495D+00  0.7087426823D-01
      0.3599933586D+01 -0.1480262627D+00  0.3397528391D+00
      0.1013761750D+01  0.1130767015D+01  0.7271585773D+00
 SP   1 1.00       0.000000000000
      0.2700058226D+00  0.1000000000D+01  0.1000000000D+01
 D   1 1.00       0.000000000000
      0.8000000000D+00  0.1000000000D+01
 ****
     15 0
 S   6 1.00       0.000000000000
      0.5484671660D+04  0.1831074430D-02
      0.8252349460D+03  0.1395017220D-01
      0.1880469580D+03  0.6844507810D-01
      0.5296450000D+02  0.2327143360D+00
      0.1689757040D+02  0.4701928980D+00
      0.5799635340D+01  0.3585208530D+00
 SP   3 1.00       0.000000000000
      0.1553961625D+02 -0.1107775495D+00  0.7087426823D-01
      0.3599933586D+01 -0.1480262627D+00  0.3397528391D+00
      0.1013761750D+01  0.1130767015D+01  0.7271585773D+00
 SP   1 1.00       0.000000000000
      0.2700058226D+00  0.1000000000D+01  0.1000000000D+01
 D   1 1.00       0.000000000000
      0.8000000000D+00  0.1000000000D+01
 ****
     16 0
 S   6 1.00       0.000000000000
      0.3047524880D+04  0.1834737132D-02
      0.4573695180D+03  0.1403732281D-01
      0.1039486850D+03  0.6884262226D-01
      0.2921015530D+02  0.2321844432D+00
      0.9286662960D+01  0.4679413484D+00
      0.3163926960D+01  0.3623119853D+00
 SP   3 1.00       0.000000000000
      0.7868272350D+01 -0.1193324198D+00  0.6899906659D-01
      0.1881288540D+01 -0.1608541517D+00  0.3164239610D+00
      0.5442492580D+00  0.1143456438D+01  0.7443082909D+00
 SP   1 1.00       0.000000000000
      0.1687144782D+00  0.1000000000D+01  0.1000000000D+01
 D   1 1.00       0.000000000000
      0.8000000000D+00  0.1000000000D+01
 ****
     17 0
 S   3 1.00       0.000000000000
      0.1873113696D+02  0.3349460434D-01
      0.2825394365D+01  0.2347269535D+00
      0.6401216923D+00  0.8137573261D+00
 S   1 1.00       0.000000000000
      0.1612777588D+00  0.1000000000D+01
 P   1 1.00       0.000000000000
      0.1100000000D+01  0.1000000000D+01
 ****
     18 0
 S   3 1.00       0.000000000000
      0.1873113696D+02  0.3349460434D-01
      0.2825394365D+01  0.2347269535D+00
      0.6401216923D+00  0.8137573261D+00
 S   1 1.00       0.000000000000
      0.1612777588D+00  0.1000000000D+01
 P   1 1.00       0.000000000000
      0.1100000000D+01  0.1000000000D+01
 ****
     19 0
 S   6 1.00       0.000000000000
      0.3047524880D+04  0.1834737132D-02
      0.4573695180D+03  0.1403732281D-01
      0.1039486850D+03  0.6884262226D-01
      0.2921015530D+02  0.2321844432D+00
      0.9286662960D+01  0.4679413484D+00
      0.3163926960D+01  0.3623119853D+00
 SP   3 1.00       0.000000000000
      0.7868272350D+01 -0.1193324198D+00  0.6899906659D-01
      0.1881288540D+01 -0.1608541517D+00  0.3164239610D+00
      0.5442492580D+00  0.1143456438D+01  0.7443082909D+00
 SP   1 1.00       0.000000000000
      0.1687144782D+00  0.1000000000D+01  0.1000000000D+01
 D   1 1.00       0.000000000000
      0.8000000000D+00  0.1000000000D+01
 ****
     20 0
 S   6 1.00       0.000000000000
      0.3047524880D+04  0.1834737132D-02
      0.4573695180D+03  0.1403732281D-01
      0.1039486850D+03  0.6884262226D-01
      0.2921015530D+02  0.2321844432D+00
      0.9286662960D+01  0.4679413484D+00
      0.3163926960D+01  0.3623119853D+00
 SP   3 1.00       0.000000000000
      0.7868272350D+01 -0.1193324198D+00  0.6899906659D-01
      0.1881288540D+01 -0.1608541517D+00  0.3164239610D+00
      0.5442492580D+00  0.1143456438D+01  0.7443082909D+00
 SP   1 1.00       0.000000000000
      0.1687144782D+00  0.1000000000D+01  0.1000000000D+01
 D   1 1.00       0.000000000000
      0.8000000000D+00  0.1000000000D+01
 ****
     21 0
 S   6 1.00       0.000000000000
      0.3047524880D+04  0.1834737132D-02
      0.4573695180D+03  0.1403732281D-01
      0.1039486850D+03  0.6884262226D-01
      0.2921015530D+02  0.2321844432D+00
      0.9286662960D+01  0.4679413484D+00
      0.3163926960D+01  0.3623119853D+00
 SP   3 1.00       0.000000000000
      0.7868272350D+01 -0.1193324198D+00  0.6899906659D-01
      0.1881288540D+01 -0.1608541517D+00  0.3164239610D+00
      0.5442492580D+00  0.1143456438D+01  0.7443082909D+00
 SP   1 1.00       0.000000000000
      0.1687144782D+00  0.1000000000D+01  0.1000000000D+01
 D   1 1.00       0.000000000000
      0.8000000000D+00  0.1000000000D+01
 ****
     22 0
 S   6 1.00       0.000000000000
      0.3047524880D+04  0.1834737132D-02
      0.4573695180D+03  0.1403732281D-01
      0.1039486850D+03  0.6884262226D-01
      0.2921015530D+02  0.2321844432D+00
      0.9286662960D+01  0.4679413484D+00
      0.3163926960D+01  0.3623119853D+00
 SP   3 1.00       0.000000000000
      0.7868272350D+01 -0.1193324198D+00  0.6899906659D-01
      0.1881288540D+01 -0.1608541517D+00  0.3164239610D+00
      0.5442492580D+00  0.1143456438D+01  0.7443082909D+00
 SP   1 1.00       0.000000000000
      0.1687144782D+00  0.1000000000D+01  0.1000000000D+01
 D   1 1.00       0.000000000000
      0.8000000000D+00  0.1000000000D+01
 ****
     23 0
 S   3 1.00       0.000000000000
      0.1873113696D+02  0.3349460434D-01
      0.2825394365D+01  0.2347269535D+00
      0.6401216923D+00  0.8137573261D+00
 S   1 1.00       0.000000000000
      0.1612777588D+00  0.1000000000D+01
 P   1 1.00       0.000000000000
      0.1100000000D+01  0.1000000000D+01
 ****
     24 0
 S   6 1.00       0.000000000000
      0.4173511460D+04  0.1834772160D-02
      0.6274579110D+03  0.1399462700D-01
      0.1429020930D+03  0.6858655181D-01
      0.4023432930D+02  0.2322408730D+00
      0.1282021290D+02  0.4690699481D+00
      0.4390437010D+01  0.3604551991D+00
 SP   3 1.00       0.000000000000
      0.1162636186D+02 -0.1149611817D+00  0.6757974388D-01
      0.2716279807D+01 -0.1691174786D+00  0.3239072959D+00
      0.7722183966D+00  0.1145851947D+01  0.7408951398D+00
 SP   1 1.00       0.000000000000
      0.2120314975D+00  0.1000000000D+01  0.1000000000D+01
 D   1 1.00       0.000000000000
      0.8000000000D+00  0.1000000000D+01
 ****
     25 0
 S   3 1.00       0.000000000000
      0.1873113696D+02  0.3349460434D-01
      0.2825394365D+01  0.2347269535D+00
      0.6401216923D+00  0.8137573261D+00
 S   1 1.00       0.000000000000
      0.1612777588D+00  0.1000000000D+01
 P   1 1.00       0.000000000000
      0.1100000000D+01  0.1000000000D+01
 ****
     26 0
 S   6 1.00       0.000000000000
      0.3047524880D+04  0.1834737132D-02
      0.4573695180D+03  0.1403732281D-01
      0.1039486850D+03  0.6884262226D-01
      0.2921015530D+02  0.2321844432D+00
      0.9286662960D+01  0.4679413484D+00
      0.3163926960D+01  0.3623119853D+00
 SP   3 1.00       0.000000000000
      0.7868272350D+01 -0.1193324198D+00  0.6899906659D-01
      0.1881288540D+01 -0.1608541517D+00  0.3164239610D+00
      0.5442492580D+00  0.1143456438D+01  0.7443082909D+00
 SP   1 1.00       0.000000000000
      0.1687144782D+00  0.1000000000D+01  0.1000000000D+01
 D   1 1.00       0.000000000000
      0.8000000000D+00  0.1000000000D+01
 ****
     27 0
 S   3 1.00       0.000000000000
      0.1873113696D+02  0.3349460434D-01
      0.2825394365D+01  0.2347269535D+00
      0.6401216923D+00  0.8137573261D+00
 S   1 1.00       0.000000000000
      0.1612777588D+00  0.1000000000D+01
 P   1 1.00       0.000000000000
      0.1100000000D+01  0.1000000000D+01
 ****
     28 0
 S   3 1.00       0.000000000000
      0.1873113696D+02  0.3349460434D-01
      0.2825394365D+01  0.2347269535D+00
      0.6401216923D+00  0.8137573261D+00
 S   1 1.00       0.000000000000
      0.1612777588D+00  0.1000000000D+01
 P   1 1.00       0.000000000000
      0.1100000000D+01  0.1000000000D+01
 ****

   318 basis functions,   601 primitive gaussians,   318 cartesian basis functions
    73 alpha electrons       72 beta electrons
       nuclear repulsion energy      1686.2823314353 Hartrees.
 NAtoms=   28 NActive=   28 NUniq=   28 SFac= 1.00D+00 NAtFMM=   60 NAOKFM=F Big=F
 ------------------------------------------------------------------------------
 Polarizable Continuum Model (PCM)
 =================================
 Model                : PCM.
 Atomic radii         : UFF (Universal Force Field).
 Polarization charges : Total charges.
 Charge compensation  : None.
 Solution method      : On-the-fly selection.
 Cavity type          : Scaled VdW (van der Waals Surface) (Alpha=1.100).
 Cavity algorithm     : GePol (No added spheres)
                        Default sphere list used, NSphG=   28.
                        Lebedev-Laikov grids with approx.  5.0 points / Ang**2.
                        Smoothing algorithm: York/Karplus (Gamma=1.0000).
                        Polarization charges: spherical gaussians, with
                                              point-specific exponents (IZeta= 3).
                        Self-potential: point-specific (ISelfS= 7).
                        Self-field    : sphere-specific E.n sum rule (ISelfD= 2).
 Solvent              : Water, Eps=  78.355300 Eps(inf)=   1.777849
 ------------------------------------------------------------------------------
 ExpMin= 9.98D-02 ExpMax= 1.94D+04 ExpMxC= 2.91D+03 IAcc=3 IRadAn=         5 AccDes= 0.00D+00
 Harris functional with IExCor=  402 and IRadAn=       5 diagonalized for initial guess.
 HarFok:  IExCor=  402 AccDes= 0.00D+00 IRadAn=         5 IDoV= 1 UseB2=F ITyADJ=14
 ICtDFT=  3500011 ScaDFX=  1.000000  1.000000  1.000000  1.000000
 FoFCou: FMM=F IPFlag=           0 FMFlag=      100000 FMFlg1=           0
         NFxFlg=           0 DoJE=T BraDBF=F KetDBF=T FulRan=T
         wScrn=  0.000000 ICntrl=       500 IOpCl=  0 I1Cent=   200000004 NGrid=           0
         NMat0=    1 NMatS0=      1 NMatT0=    0 NMatD0=    1 NMtDS0=    0 NMtDT0=    0
 Petite list used in FoFCou.
 Initial guess <Sx>= 0.0000 <Sy>= 0.0000 <Sz>= 0.5000 <S**2>= 0.7500 S= 0.5000
 Inv3:  Mode=1 IEnd=    15377088.
 Iteration    1 A*A^-1 deviation from unit magnitude is 8.77D-15 for   1920.
 Iteration    1 A*A^-1 deviation from orthogonality  is 4.33D-15 for   1882    308.
 Iteration    1 A^-1*A deviation from unit magnitude is 8.22D-15 for   1920.
 Iteration    1 A^-1*A deviation from orthogonality  is 3.00D-15 for   1986     83.
 Restarting incremental Fock formation.
 Error on total polarization charges =  0.00508
 SCF Done:  E(UB3LYP) =  -1537.29814821     A.U. after   35 cycles
            NFock= 35  Conv=0.77D-08     -V/T= 2.0068
 <Sx>= 0.0000 <Sy>= 0.0000 <Sz>= 0.5000 <S**2>= 0.7590 S= 0.5045
 <L.S>= 0.000000000000E+00
 Annihilation of the first spin contaminant:
 S**2 before annihilation     0.7590,   after     0.7501

 **********************************************************************

            Population analysis using the SCF density.

 **********************************************************************

 Orbital symmetries:
 Alpha Orbitals:
       Occupied  (A) (A) (A) (A) (A) (A) (A) (A) (A) (A) (A) (A)
                 (A) (A) (A) (A) (A) (A) (A) (A) (A) (A) (A) (A)
                 (A) (A) (A) (A) (A) (A) (A) (A) (A) (A) (A) (A)
                 (A) (A) (A) (A) (A) (A) (A) (A) (A) (A) (A) (A)
                 (A) (A) (A) (A) (A) (A) (A) (A) (A) (A) (A) (A)
                 (A) (A) (A) (A) (A) (A) (A) (A) (A) (A) (A) (A)
                 (A)
       Virtual   (A) (A) (A) (A) (A) (A) (A) (A) (A) (A) (A) (A)
                 (A) (A) (A) (A) (A) (A) (A) (A) (A) (A) (A) (A)
                 (A) (A) (A) (A) (A) (A) (A) (A) (A) (A) (A) (A)
                 (A) (A) (A) (A) (A) (A) (A) (A) (A) (A) (A) (A)
                 (A) (A) (A) (A) (A) (A) (A) (A) (A) (A) (A) (A)
                 (A) (A) (A) (A) (A) (A) (A) (A) (A) (A) (A) (A)
                 (A) (A) (A) (A) (A) (A) (A) (A) (A) (A) (A) (A)
                 (A) (A) (A) (A) (A) (A) (A) (A) (A) (A) (A) (A)
                 (A) (A) (A) (A) (A) (A) (A) (A) (A) (A) (A) (A)
                 (A) (A) (A) (A) (A) (A) (A) (A) (A) (A) (A) (A)
                 (A) (A) (A) (A) (A) (A) (A) (A) (A) (A) (A) (A)
                 (A) (A) (A) (A) (A) (A) (A) (A) (A) (A) (A) (A)
                 (A) (A) (A) (A) (A) (A) (A) (A) (A) (A) (A) (A)
                 (A) (A) (A) (A) (A) (A) (A) (A) (A) (A) (A) (A)
                 (A) (A) (A) (A) (A) (A) (A) (A) (A) (A) (A) (A)
                 (A) (A) (A) (A) (A) (A) (A) (A) (A) (A) (A) (A)
                 (A) (A) (A) (A) (A) (A) (A) (A) (A) (A) (A) (A)
                 (A) (A) (A) (A) (A) (A) (A) (A) (A) (A) (A) (A)
                 (A) (A) (A) (A) (A) (A) (A) (A) (A) (A) (A) (A)
                 (A) (A) (A) (A) (A) (A) (A) (A) (A) (A) (A) (A)
                 (A) (A) (A) (A) (A)
 Beta  Orbitals:
       Occupied  (A) (A) (A) (A) (A) (A) (A) (A) (A) (A) (A) (A)
                 (A) (A) (A) (A) (A) (A) (A) (A) (A) (A) (A) (A)
                 (A) (A) (A) (A) (A) (A) (A) (A) (A) (A) (A) (A)
                 (A) (A) (A) (A) (A) (A) (A) (A) (A) (A) (A) (A)
                 (A) (A) (A) (A) (A) (A) (A) (A) (A) (A) (A) (A)
                 (A) (A) (A) (A) (A) (A) (A) (A) (A) (A) (A) (A)
       Virtual   (A) (A) (A) (A) (A) (A) (A) (A) (A) (A) (A) (A)
                 (A) (A) (A) (A) (A) (A) (A) (A) (A) (A) (A) (A)
                 (A) (A) (A) (A) (A) (A) (A) (A) (A) (A) (A) (A)
                 (A) (A) (A) (A) (A) (A) (A) (A) (A) (A) (A) (A)
                 (A) (A) (A) (A) (A) (A) (A) (A) (A) (A) (A) (A)
                 (A) (A) (A) (A) (A) (A) (A) (A) (A) (A) (A) (A)
                 (A) (A) (A) (A) (A) (A) (A) (A) (A) (A) (A) (A)
                 (A) (A) (A) (A) (A) (A) (A) (A) (A) (A) (A) (A)
                 (A) (A) (A) (A) (A) (A) (A) (A) (A) (A) (A) (A)
                 (A) (A) (A) (A) (A) (A) (A) (A) (A) (A) (A) (A)
                 (A) (A) (A) (A) (A) (A) (A) (A) (A) (A) (A) (A)
                 (A) (A) (A) (A) (A) (A) (A) (A) (A) (A) (A) (A)
                 (A) (A) (A) (A) (A) (A) (A) (A) (A) (A) (A) (A)
                 (A) (A) (A) (A) (A) (A) (A) (A) (A) (A) (A) (A)
                 (A) (A) (A) (A) (A) (A) (A) (A) (A) (A) (A) (A)
                 (A) (A) (A) (A) (A) (A) (A) (A) (A) (A) (A) (A)
                 (A) (A) (A) (A) (A) (A) (A) (A) (A) (A) (A) (A)
                 (A) (A) (A) (A) (A) (A) (A) (A) (A) (A) (A) (A)
                 (A) (A) (A) (A) (A) (A) (A) (A) (A) (A) (A) (A)
                 (A) (A) (A) (A) (A) (A) (A) (A) (A) (A) (A) (A)
                 (A) (A) (A) (A) (A) (A)
 The electronic state is 2-A.
 Alpha  occ. eigenvalues --  -77.26071 -77.25569 -19.22223 -19.22108 -19.21679
 Alpha  occ. eigenvalues --  -19.21304 -19.21296 -19.15705 -19.14496 -14.39736
 Alpha  occ. eigenvalues --  -10.32383 -10.30862 -10.30838 -10.30050 -10.27136
 Alpha  occ. eigenvalues --  -10.26471 -10.26038  -6.70988  -6.70437  -4.87417
 Alpha  occ. eigenvalues --   -4.87275  -4.87135  -4.86886  -4.86730  -4.86569
 Alpha  occ. eigenvalues --   -1.11745  -1.10756  -1.08721  -1.06313  -1.05630
 Alpha  occ. eigenvalues --   -1.01582  -1.00354  -0.99268  -0.89249  -0.85049
 Alpha  occ. eigenvalues --   -0.81111  -0.72758  -0.70058  -0.68318  -0.67249
 Alpha  occ. eigenvalues --   -0.63352  -0.59987  -0.58291  -0.57970  -0.56997
 Alpha  occ. eigenvalues --   -0.55094  -0.54416  -0.51045  -0.49825  -0.48877
 Alpha  occ. eigenvalues --   -0.48371  -0.47575  -0.46368  -0.45923  -0.45541
 Alpha  occ. eigenvalues --   -0.44461  -0.43749  -0.43166  -0.42140  -0.41556
 Alpha  occ. eigenvalues --   -0.40643  -0.39485  -0.38841  -0.38246  -0.37624
 Alpha  occ. eigenvalues --   -0.35316  -0.34425  -0.34310  -0.33302  -0.33021
 Alpha  occ. eigenvalues --   -0.32459  -0.31771  -0.30519
 Alpha virt. eigenvalues --   -0.09394  -0.08878   0.00639   0.01446   0.03071
 Alpha virt. eigenvalues --    0.03433   0.06140   0.06518   0.07593   0.08249
 Alpha virt. eigenvalues --    0.08997   0.09665   0.10638   0.11104   0.12301
 Alpha virt. eigenvalues --    0.12875   0.13352   0.13451   0.14756   0.15753
 Alpha virt. eigenvalues --    0.16086   0.17365   0.19244   0.19804   0.21150
 Alpha virt. eigenvalues --    0.22338   0.26203   0.27948   0.29887   0.31442
 Alpha virt. eigenvalues --    0.32351   0.34111   0.36017   0.37168   0.37657
 Alpha virt. eigenvalues --    0.38759   0.39499   0.41197   0.42681   0.46263
 Alpha virt. eigenvalues --    0.46906   0.49882   0.50457   0.50910   0.52414
 Alpha virt. eigenvalues --    0.53498   0.54707   0.54856   0.55284   0.55793
 Alpha virt. eigenvalues --    0.58348   0.59384   0.60688   0.61693   0.64232
 Alpha virt. eigenvalues --    0.67601   0.71479   0.71671   0.72424   0.73642
 Alpha virt. eigenvalues --    0.74347   0.74518   0.75391   0.77129   0.77518
 Alpha virt. eigenvalues --    0.78536   0.79502   0.79809   0.80561   0.81104
 Alpha virt. eigenvalues --    0.83414   0.83593   0.84566   0.85485   0.86273
 Alpha virt. eigenvalues --    0.87191   0.88466   0.89283   0.89945   0.90178
 Alpha virt. eigenvalues --    0.92455   0.93046   0.93634   0.94890   0.95966
 Alpha virt. eigenvalues --    0.96947   0.97682   0.99646   1.00454   1.01181
 Alpha virt. eigenvalues --    1.02391   1.02647   1.04075   1.05993   1.06656
 Alpha virt. eigenvalues --    1.07603   1.09610   1.11155   1.12322   1.13317
 Alpha virt. eigenvalues --    1.15543   1.15719   1.17518   1.18314   1.19212
 Alpha virt. eigenvalues --    1.20371   1.23049   1.25542   1.26759   1.28489
 Alpha virt. eigenvalues --    1.30857   1.32132   1.33263   1.34307   1.36566
 Alpha virt. eigenvalues --    1.39385   1.40201   1.41797   1.43463   1.45161
 Alpha virt. eigenvalues --    1.45924   1.49638   1.52600   1.53402   1.55279
 Alpha virt. eigenvalues --    1.56063   1.57133   1.57709   1.58609   1.65117
 Alpha virt. eigenvalues --    1.65440   1.67786   1.68176   1.69621   1.70718
 Alpha virt. eigenvalues --    1.71556   1.72466   1.74798   1.75047   1.77302
 Alpha virt. eigenvalues --    1.79159   1.79482   1.80306   1.81389   1.82809
 Alpha virt. eigenvalues --    1.83633   1.84473   1.84602   1.86922   1.87744
 Alpha virt. eigenvalues --    1.90442   1.91437   1.92351   1.93192   1.95146
 Alpha virt. eigenvalues --    1.95775   1.99121   2.01928   2.03630   2.04857
 Alpha virt. eigenvalues --    2.06334   2.07874   2.09890   2.10183   2.14786
 Alpha virt. eigenvalues --    2.17991   2.19687   2.20564   2.22717   2.24737
 Alpha virt. eigenvalues --    2.25178   2.26871   2.28305   2.29881   2.30618
 Alpha virt. eigenvalues --    2.31641   2.32850   2.34048   2.34587   2.36078
 Alpha virt. eigenvalues --    2.38341   2.39505   2.40788   2.42894   2.45453
 Alpha virt. eigenvalues --    2.46122   2.46602   2.47259   2.49069   2.54687
 Alpha virt. eigenvalues --    2.58036   2.58653   2.58813   2.58978   2.59677
 Alpha virt. eigenvalues --    2.60358   2.60828   2.61094   2.62879   2.63310
 Alpha virt. eigenvalues --    2.65368   2.66093   2.67793   2.68472   2.70649
 Alpha virt. eigenvalues --    2.71112   2.75438   2.78200   2.79832   2.80404
 Alpha virt. eigenvalues --    2.82811   2.87589   2.93410   2.95558   3.00510
 Alpha virt. eigenvalues --    3.12845   3.18645   3.21640   3.26097   3.32300
 Alpha virt. eigenvalues --    3.33028   3.34020   3.34639   3.38329   3.39664
 Alpha virt. eigenvalues --    3.41804   3.43183   3.48053   3.52970   3.73523
 Alpha virt. eigenvalues --    3.83836   3.87153   3.96607   4.00546   4.02724
 Alpha virt. eigenvalues --    4.05320   4.13816   4.14943   4.18291   4.26096
 Alpha virt. eigenvalues --    4.29609   4.35446   4.41107   4.59840   4.69871
  Beta  occ. eigenvalues --  -77.26069 -77.25570 -19.22048 -19.22024 -19.21655
  Beta  occ. eigenvalues --  -19.21304 -19.21293 -19.15556 -19.14476 -14.39835
  Beta  occ. eigenvalues --  -10.32294 -10.30510 -10.30461 -10.29662 -10.26954
  Beta  occ. eigenvalues --  -10.26560 -10.26035  -6.70985  -6.70437  -4.87418
  Beta  occ. eigenvalues --   -4.87279  -4.87120  -4.86887  -4.86732  -4.86568
  Beta  occ. eigenvalues --   -1.11599  -1.10698  -1.08373  -1.06207  -1.05621
  Beta  occ. eigenvalues --   -1.01099  -1.00022  -0.99216  -0.88634  -0.84373
  Beta  occ. eigenvalues --   -0.80367  -0.72404  -0.69485  -0.68058  -0.66922
  Beta  occ. eigenvalues --   -0.63118  -0.59920  -0.58144  -0.57876  -0.56760
  Beta  occ. eigenvalues --   -0.54830  -0.54080  -0.50750  -0.49481  -0.48747
  Beta  occ. eigenvalues --   -0.47882  -0.46834  -0.45941  -0.45748  -0.44742
  Beta  occ. eigenvalues --   -0.44195  -0.43349  -0.42957  -0.42000  -0.41316
  Beta  occ. eigenvalues --   -0.40473  -0.39293  -0.38767  -0.37868  -0.37065
  Beta  occ. eigenvalues --   -0.34914  -0.33960  -0.33151  -0.32848  -0.32463
  Beta  occ. eigenvalues --   -0.31490  -0.29638
  Beta virt. eigenvalues --   -0.26464  -0.07953  -0.06348   0.00797   0.01598
  Beta virt. eigenvalues --    0.03188   0.03598   0.06272   0.07221   0.08112
  Beta virt. eigenvalues --    0.08470   0.09172   0.09754   0.10858   0.11303
  Beta virt. eigenvalues --    0.12451   0.13092   0.13469   0.13572   0.15014
  Beta virt. eigenvalues --    0.15968   0.16333   0.17564   0.19665   0.20219
  Beta virt. eigenvalues --    0.21399   0.22494   0.26446   0.28336   0.30217
  Beta virt. eigenvalues --    0.31584   0.32404   0.34361   0.36113   0.37238
  Beta virt. eigenvalues --    0.37756   0.38938   0.39950   0.41409   0.42830
  Beta virt. eigenvalues --    0.46456   0.47733   0.50426   0.50856   0.51164
  Beta virt. eigenvalues --    0.52718   0.53960   0.54934   0.55267   0.55617
  Beta virt. eigenvalues --    0.56258   0.58724   0.59904   0.61650   0.62083
  Beta virt. eigenvalues --    0.64564   0.68365   0.71560   0.71857   0.72500
  Beta virt. eigenvalues --    0.73783   0.74547   0.74590   0.75476   0.77258
  Beta virt. eigenvalues --    0.77636   0.78636   0.79608   0.79949   0.80626
  Beta virt. eigenvalues --    0.81239   0.83578   0.83830   0.84776   0.85594
  Beta virt. eigenvalues --    0.86346   0.87373   0.88549   0.89398   0.90042
  Beta virt. eigenvalues --    0.90316   0.92655   0.93195   0.93809   0.95014
  Beta virt. eigenvalues --    0.96212   0.97036   0.97814   0.99814   1.00564
  Beta virt. eigenvalues --    1.01282   1.02649   1.02785   1.04292   1.06158
  Beta virt. eigenvalues --    1.06865   1.07744   1.09737   1.11305   1.12491
  Beta virt. eigenvalues --    1.13566   1.15871   1.16239   1.17645   1.18396
  Beta virt. eigenvalues --    1.19572   1.20730   1.23276   1.25862   1.27068
  Beta virt. eigenvalues --    1.28985   1.31057   1.32630   1.33923   1.34669
  Beta virt. eigenvalues --    1.37434   1.39603   1.40940   1.42040   1.43579
  Beta virt. eigenvalues --    1.45308   1.46186   1.49863   1.52728   1.53508
  Beta virt. eigenvalues --    1.55362   1.56198   1.57430   1.57969   1.58736
  Beta virt. eigenvalues --    1.65305   1.65616   1.67906   1.68325   1.69813
  Beta virt. eigenvalues --    1.70897   1.71885   1.72770   1.74915   1.75417
  Beta virt. eigenvalues --    1.77569   1.79391   1.79772   1.80518   1.81613
  Beta virt. eigenvalues --    1.83092   1.83756   1.84746   1.84852   1.87177
  Beta virt. eigenvalues --    1.87947   1.90767   1.91912   1.92478   1.93517
  Beta virt. eigenvalues --    1.95636   1.95970   1.99540   2.02226   2.04172
  Beta virt. eigenvalues --    2.05568   2.07361   2.08107   2.10110   2.10513
  Beta virt. eigenvalues --    2.15069   2.18224   2.20080   2.20751   2.23057
  Beta virt. eigenvalues --    2.24825   2.26303   2.27323   2.28413   2.29981
  Beta virt. eigenvalues --    2.30692   2.31670   2.32956   2.34349   2.34855
  Beta virt. eigenvalues --    2.36328   2.38628   2.39756   2.40934   2.43240
  Beta virt. eigenvalues --    2.45653   2.46235   2.46963   2.47611   2.49611
  Beta virt. eigenvalues --    2.54996   2.58216   2.58694   2.58857   2.59050
  Beta virt. eigenvalues --    2.59706   2.60476   2.61119   2.61936   2.62996
  Beta virt. eigenvalues --    2.63568   2.65859   2.66340   2.67991   2.68670
  Beta virt. eigenvalues --    2.70741   2.71192   2.75652   2.78348   2.79985
  Beta virt. eigenvalues --    2.80519   2.83077   2.87765   2.93563   2.95738
  Beta virt. eigenvalues --    3.00818   3.13090   3.18718   3.21773   3.26354
  Beta virt. eigenvalues --    3.32313   3.33055   3.34112   3.34646   3.38393
  Beta virt. eigenvalues --    3.39860   3.41901   3.43338   3.48104   3.52986
  Beta virt. eigenvalues --    3.73682   3.83950   3.87263   3.96737   4.00725
  Beta virt. eigenvalues --    4.02830   4.05618   4.14023   4.15252   4.18527
  Beta virt. eigenvalues --    4.26649   4.29934   4.35735   4.41753   4.60015
  Beta virt. eigenvalues --    4.70312
     Alpha Molecular Orbital Coefficients:
                           1         2         3         4         5
                           O         O         O         O         O
     Eigenvalues --   -77.26071 -77.25569 -19.22223 -19.22108 -19.21679
   1 1   C  1S         -0.00003  -0.00004  -0.00001  -0.00002  -0.00005
   2        2S          0.00001  -0.00003   0.00017  -0.00016  -0.00023
   3        2PX         0.00001  -0.00003   0.00010   0.00003  -0.00004
   4        2PY         0.00004  -0.00003  -0.00013   0.00000   0.00005
   5        2PZ        -0.00000  -0.00000  -0.00030   0.00004  -0.00001
   6        3S          0.00058   0.00092  -0.00126   0.00092   0.00176
   7        3PX         0.00010  -0.00038  -0.00070  -0.00017   0.00019
   8        3PY         0.00051  -0.00016   0.00067   0.00075   0.00043
   9        3PZ        -0.00001   0.00012   0.00106  -0.00057   0.00068
  10        4XX        -0.00008  -0.00013   0.00003  -0.00002  -0.00002
  11        4YY        -0.00014  -0.00008   0.00005   0.00005  -0.00000
  12        4ZZ        -0.00006  -0.00008   0.00019  -0.00001  -0.00009
  13        4XY        -0.00001  -0.00002   0.00001   0.00003  -0.00001
  14        4XZ        -0.00001   0.00002  -0.00004  -0.00001   0.00002
  15        4YZ        -0.00001   0.00002   0.00007  -0.00000  -0.00001
  16 2   O  1S          0.00000   0.00000   0.99271   0.00109  -0.00028
  17        2S          0.00001   0.00000   0.02584   0.00001  -0.00027
  18        2PX         0.00001   0.00001  -0.00084  -0.00000   0.00001
  19        2PY        -0.00001  -0.00001   0.00057  -0.00003  -0.00004
  20        2PZ        -0.00001  -0.00001   0.00023  -0.00000  -0.00002
  21        3S         -0.00015  -0.00013   0.01257  -0.00018   0.00113
  22        3PX        -0.00008   0.00004   0.00003   0.00014  -0.00013
  23        3PY        -0.00009   0.00004   0.00010   0.00009   0.00027
  24        3PZ        -0.00008  -0.00011   0.00059  -0.00001   0.00017
  25        4XX        -0.00002   0.00003  -0.00814  -0.00003  -0.00019
  26        4YY         0.00001  -0.00003  -0.00817   0.00004  -0.00014
  27        4ZZ         0.00000  -0.00001  -0.00822  -0.00002  -0.00017
  28        4XY        -0.00001   0.00000   0.00000   0.00002  -0.00002
  29        4XZ        -0.00001   0.00001   0.00005   0.00000  -0.00001
  30        4YZ        -0.00001   0.00001  -0.00004  -0.00001   0.00002
  31 3   H  1S         -0.00001  -0.00002   0.00035  -0.00005  -0.00004
  32        2S         -0.00014  -0.00018  -0.00122   0.00035   0.00007
  33        3PX        -0.00001   0.00002  -0.00008   0.00003  -0.00002
  34        3PY        -0.00003   0.00000   0.00003   0.00001   0.00001
  35        3PZ        -0.00003  -0.00004  -0.00013   0.00002   0.00001
  36 4   P  1S         -0.00034   0.99625   0.00000   0.00000  -0.00000
  37        2S         -0.00001   0.01417   0.00004   0.00001   0.00001
  38        2PX         0.00001   0.00002  -0.00000  -0.00000  -0.00000
  39        2PY         0.00000  -0.00002   0.00000  -0.00000  -0.00002
  40        2PZ         0.00000  -0.00003   0.00000  -0.00000   0.00002
  41        3S          0.00007  -0.02723   0.00028   0.00007  -0.00003
  42        3PX        -0.00011  -0.00014   0.00010   0.00004   0.00002
  43        3PY        -0.00003  -0.00001   0.00001   0.00001   0.00007
  44        3PZ        -0.00000   0.00005  -0.00006   0.00001  -0.00020
  45        4S          0.00017   0.00294  -0.00111  -0.00033  -0.00035
  46        4PX         0.00006   0.00016  -0.00049  -0.00013   0.00005
  47        4PY        -0.00011   0.00014   0.00025  -0.00018  -0.00032
  48        4PZ        -0.00010  -0.00001   0.00027  -0.00011   0.00042
  49        5XX        -0.00007   0.00941   0.00003   0.00001  -0.00002
  50        5YY        -0.00006   0.00947  -0.00003   0.00002   0.00010
  51        5ZZ        -0.00002   0.00947  -0.00003  -0.00000   0.00001
  52        5XY        -0.00005  -0.00003  -0.00003  -0.00002   0.00002
  53        5XZ         0.00002   0.00002   0.00000   0.00004  -0.00005
  54        5YZ         0.00002   0.00002  -0.00002   0.00000  -0.00007
  55 5   P  1S          0.99625   0.00035   0.00000   0.00001   0.00001
  56        2S          0.01417   0.00000   0.00004   0.00000  -0.00003
  57        2PX        -0.00000  -0.00001  -0.00002  -0.00005   0.00005
  58        2PY        -0.00002  -0.00001   0.00001  -0.00001  -0.00001
  59        2PZ        -0.00003  -0.00000  -0.00000   0.00004   0.00004
  60        3S         -0.02726   0.00011   0.00023   0.00040   0.00023
  61        3PX        -0.00001   0.00005   0.00014   0.00012  -0.00013
  62        3PY         0.00016   0.00009  -0.00013  -0.00008  -0.00009
  63        3PZ         0.00003   0.00004  -0.00002  -0.00013  -0.00014
  64        4S          0.00304  -0.00015  -0.00087  -0.00361  -0.00289
  65        4PX         0.00009   0.00009  -0.00004  -0.00061   0.00150
  66        4PY        -0.00024   0.00003   0.00039   0.00026   0.00072
  67        4PZ         0.00015  -0.00012   0.00022   0.00225   0.00130
  68        5XX         0.00947  -0.00004   0.00001   0.00010   0.00014
  69        5YY         0.00941  -0.00008   0.00003  -0.00002  -0.00003
  70        5ZZ         0.00951  -0.00004  -0.00003   0.00000  -0.00001
  71        5XY        -0.00001  -0.00004  -0.00005   0.00003  -0.00008
  72        5XZ        -0.00001  -0.00000  -0.00002  -0.00023   0.00017
  73        5YZ         0.00000   0.00001   0.00001  -0.00007  -0.00008
  74 6   O  1S          0.00002  -0.00001   0.00003  -0.00004  -0.00056
  75        2S          0.00006  -0.00005  -0.00011   0.00001  -0.00012
  76        2PX         0.00002  -0.00002  -0.00002   0.00002   0.00000
  77        2PY         0.00001   0.00004  -0.00000  -0.00002   0.00003
  78        2PZ         0.00001  -0.00008   0.00002  -0.00001  -0.00001
  79        3S         -0.00025   0.00073   0.00052  -0.00003   0.00049
  80        3PX        -0.00014   0.00001   0.00023  -0.00007   0.00001
  81        3PY        -0.00004  -0.00020  -0.00001   0.00006  -0.00007
  82        3PZ        -0.00008   0.00029  -0.00006   0.00003   0.00006
  83        4XX         0.00006  -0.00006  -0.00007   0.00001   0.00003
  84        4YY         0.00006  -0.00001  -0.00007   0.00003   0.00000
  85        4ZZ         0.00005  -0.00021  -0.00008   0.00001  -0.00003
  86        4XY         0.00001   0.00007  -0.00000   0.00001   0.00005
  87        4XZ        -0.00001  -0.00012  -0.00001   0.00000  -0.00001
  88        4YZ         0.00001   0.00005  -0.00001   0.00001   0.00001
  89 7   H  1S         -0.00004  -0.00010   0.00001  -0.00000  -0.00011
  90        2S         -0.00005  -0.00021   0.00007  -0.00004   0.00002
  91        3PX        -0.00002  -0.00001   0.00001  -0.00000  -0.00004
  92        3PY        -0.00002  -0.00000   0.00001  -0.00001  -0.00002
  93        3PZ        -0.00000  -0.00000   0.00002  -0.00001  -0.00001
  94 8   O  1S          0.00000  -0.00001   0.00005  -0.00001   0.00010
  95        2S          0.00001  -0.00006  -0.00016  -0.00001  -0.00000
  96        2PX        -0.00000   0.00001  -0.00002  -0.00001  -0.00001
  97        2PY        -0.00000  -0.00008  -0.00003  -0.00001   0.00000
  98        2PZ        -0.00000  -0.00003   0.00001  -0.00000   0.00001
  99        3S         -0.00010   0.00081   0.00077   0.00002   0.00003
 100        3PX         0.00001  -0.00006   0.00011   0.00003   0.00003
 101        3PY        -0.00001   0.00030   0.00022   0.00004  -0.00001
 102        3PZ         0.00002   0.00021  -0.00011   0.00000  -0.00006
 103        4XX         0.00001  -0.00003  -0.00011  -0.00001  -0.00001
 104        4YY         0.00001  -0.00028  -0.00011  -0.00000  -0.00002
 105        4ZZ         0.00000   0.00004  -0.00013  -0.00001  -0.00002
 106        4XY         0.00000  -0.00001   0.00002   0.00000   0.00001
 107        4XZ         0.00000  -0.00000  -0.00001  -0.00000  -0.00000
 108        4YZ         0.00000  -0.00002  -0.00001   0.00000  -0.00001
 109 9   H  1S         -0.00000  -0.00012   0.00000   0.00001   0.00003
 110        2S         -0.00001  -0.00022   0.00008   0.00001  -0.00011
 111        3PX        -0.00000   0.00001  -0.00000  -0.00000  -0.00000
 112        3PY        -0.00000  -0.00001   0.00000   0.00000  -0.00001
 113        3PZ        -0.00000   0.00002  -0.00002  -0.00001  -0.00000
 114 10  O  1S         -0.00001   0.00001   0.00018   0.00031   0.99268
 115        2S         -0.00005   0.00004  -0.00014  -0.00023   0.02576
 116        2PX        -0.00008  -0.00000  -0.00002  -0.00000   0.00062
 117        2PY        -0.00000  -0.00001   0.00003   0.00004   0.00069
 118        2PZ        -0.00005  -0.00001   0.00002   0.00003   0.00023
 119        3S          0.00078  -0.00014   0.00062   0.00148   0.01279
 120        3PX         0.00031   0.00003   0.00012   0.00033   0.00023
 121        3PY         0.00011   0.00008  -0.00024  -0.00044  -0.00071
 122        3PZ         0.00018   0.00001  -0.00002  -0.00001   0.00022
 123        4XX        -0.00018   0.00003  -0.00010  -0.00021  -0.00828
 124        4YY         0.00001   0.00000  -0.00012  -0.00019  -0.00832
 125        4ZZ        -0.00010   0.00003  -0.00012  -0.00015  -0.00827
 126        4XY         0.00009  -0.00001  -0.00002  -0.00005  -0.00001
 127        4XZ        -0.00012   0.00001   0.00000   0.00003  -0.00003
 128        4YZ         0.00005   0.00001   0.00001   0.00002   0.00001
 129 11  H  1S         -0.00011  -0.00000   0.00004   0.00006   0.00049
 130        2S         -0.00018  -0.00000   0.00002   0.00037  -0.00086
 131        3PX        -0.00000  -0.00000  -0.00001   0.00005  -0.00003
 132        3PY         0.00001  -0.00001  -0.00003  -0.00005   0.00001
 133        3PZ        -0.00001  -0.00000   0.00001   0.00002  -0.00002
 134 12  O  1S         -0.00000   0.00000  -0.00109   0.99267  -0.00041
 135        2S         -0.00002   0.00000  -0.00007   0.02569  -0.00015
 136        2PX         0.00005   0.00000   0.00000   0.00030  -0.00001
 137        2PY         0.00001   0.00000  -0.00001  -0.00015   0.00003
 138        2PZ        -0.00007  -0.00000  -0.00001   0.00091   0.00004
 139        3S          0.00063  -0.00003   0.00022   0.01322   0.00087
 140        3PX        -0.00013   0.00001  -0.00003  -0.00062  -0.00024
 141        3PY        -0.00001  -0.00001  -0.00004  -0.00023  -0.00019
 142        3PZ         0.00029   0.00001   0.00002   0.00003  -0.00015
 143        4XX        -0.00010   0.00001   0.00002  -0.00830  -0.00021
 144        4YY        -0.00002   0.00000   0.00002  -0.00829  -0.00007
 145        4ZZ        -0.00007   0.00000   0.00001  -0.00833  -0.00012
 146        4XY        -0.00006   0.00000   0.00000   0.00000   0.00005
 147        4XZ         0.00017  -0.00000   0.00003   0.00004  -0.00004
 148        4YZ         0.00005  -0.00000  -0.00000   0.00000   0.00000
 149 13  H  1S         -0.00009  -0.00000  -0.00004   0.00040   0.00011
 150        2S         -0.00021  -0.00002   0.00006  -0.00106  -0.00020
 151        3PX         0.00001   0.00000   0.00001   0.00011  -0.00003
 152        3PY        -0.00001   0.00000  -0.00001   0.00002   0.00000
 153        3PZ         0.00000   0.00000   0.00001   0.00001  -0.00005
 154 14  O  1S          0.00002   0.00001   0.00000  -0.00003  -0.00003
 155        2S          0.00000   0.00001  -0.00001   0.00006   0.00004
 156        2PX         0.00002  -0.00001  -0.00001  -0.00003   0.00006
 157        2PY         0.00004  -0.00002   0.00000  -0.00001   0.00002
 158        2PZ         0.00018  -0.00000  -0.00000   0.00001  -0.00003
 159        3S          0.00024  -0.00003   0.00004  -0.00029  -0.00020
 160        3PX        -0.00004   0.00003   0.00001   0.00017  -0.00034
 161        3PY        -0.00004   0.00005  -0.00005   0.00003  -0.00012
 162        3PZ        -0.00036   0.00003  -0.00003  -0.00027  -0.00011
 163        4XX         0.00010   0.00002   0.00001   0.00004   0.00006
 164        4YY         0.00007   0.00002  -0.00000   0.00007   0.00006
 165        4ZZ        -0.00013   0.00001   0.00001   0.00012   0.00009
 166        4XY        -0.00001  -0.00001  -0.00000  -0.00003   0.00004
 167        4XZ        -0.00003  -0.00000   0.00000   0.00000   0.00004
 168        4YZ        -0.00010  -0.00001   0.00000   0.00001   0.00002
 169 15  O  1S          0.00001   0.00002   0.00000  -0.00001  -0.00001
 170        2S          0.00005  -0.00003  -0.00000  -0.00004  -0.00011
 171        2PX         0.00002  -0.00005  -0.00001   0.00000  -0.00001
 172        2PY         0.00001   0.00009   0.00000   0.00001  -0.00005
 173        2PZ        -0.00000   0.00016  -0.00001   0.00001   0.00005
 174        3S         -0.00018   0.00039   0.00001   0.00023   0.00047
 175        3PX        -0.00008   0.00008   0.00007   0.00001   0.00008
 176        3PY        -0.00003  -0.00021  -0.00005  -0.00005   0.00017
 177        3PZ         0.00005  -0.00032  -0.00002  -0.00006  -0.00025
 178        4XX         0.00003   0.00004   0.00000  -0.00003  -0.00011
 179        4YY         0.00004   0.00004   0.00002  -0.00002  -0.00010
 180        4ZZ         0.00003  -0.00010   0.00001  -0.00002  -0.00006
 181        4XY        -0.00002   0.00004  -0.00001  -0.00001   0.00001
 182        4XZ         0.00001   0.00009  -0.00001   0.00000  -0.00003
 183        4YZ        -0.00000  -0.00010   0.00001   0.00000  -0.00000
 184 16  C  1S         -0.00002  -0.00001   0.00000  -0.00002   0.00002
 185        2S         -0.00005  -0.00001   0.00009  -0.00007   0.00011
 186        2PX         0.00001   0.00004  -0.00003  -0.00001  -0.00000
 187        2PY        -0.00003  -0.00001   0.00001  -0.00001   0.00000
 188        2PZ         0.00002   0.00000  -0.00006   0.00000   0.00002
 189        3S          0.00036  -0.00025  -0.00002   0.00021  -0.00072
 190        3PX         0.00017  -0.00011  -0.00042  -0.00054   0.00037
 191        3PY        -0.00018  -0.00011   0.00007   0.00012  -0.00044
 192        3PZ        -0.00017   0.00024   0.00012  -0.00012   0.00001
 193        4XX        -0.00003  -0.00004  -0.00001  -0.00003   0.00002
 194        4YY        -0.00005  -0.00002   0.00001  -0.00003   0.00002
 195        4ZZ        -0.00004  -0.00002  -0.00008  -0.00004   0.00003
 196        4XY         0.00000   0.00001   0.00000  -0.00001   0.00003
 197        4XZ        -0.00001  -0.00001  -0.00000   0.00001  -0.00001
 198        4YZ         0.00001  -0.00000  -0.00001  -0.00002   0.00002
 199 17  H  1S         -0.00003   0.00001   0.00002  -0.00002   0.00000
 200        2S         -0.00008  -0.00021   0.00013   0.00002  -0.00006
 201        3PX        -0.00001   0.00004  -0.00001   0.00001  -0.00002
 202        3PY         0.00001  -0.00002   0.00001   0.00001   0.00000
 203        3PZ         0.00001  -0.00000  -0.00005  -0.00000  -0.00001
 204 18  H  1S          0.00002  -0.00000  -0.00001  -0.00001   0.00008
 205        2S         -0.00011  -0.00025  -0.00012  -0.00008   0.00006
 206        3PX         0.00000   0.00004   0.00003   0.00001  -0.00001
 207        3PY        -0.00003   0.00001  -0.00001  -0.00002   0.00001
 208        3PZ         0.00002   0.00002   0.00000   0.00000   0.00000
 209 19  C  1S          0.00001  -0.00001  -0.00003  -0.00001   0.00000
 210        2S          0.00008  -0.00002  -0.00016  -0.00004   0.00001
 211        2PX         0.00000   0.00003   0.00002   0.00003  -0.00001
 212        2PY        -0.00003   0.00000  -0.00003  -0.00000  -0.00001
 213        2PZ        -0.00003   0.00000  -0.00004  -0.00003   0.00000
 214        3S         -0.00039  -0.00003   0.00150  -0.00024  -0.00010
 215        3PX         0.00029  -0.00049  -0.00031  -0.00081   0.00003
 216        3PY         0.00039  -0.00012  -0.00013   0.00001   0.00033
 217        3PZ         0.00053  -0.00010  -0.00045   0.00043   0.00020
 218        4XX         0.00000   0.00000  -0.00001  -0.00001   0.00001
 219        4YY         0.00001  -0.00002  -0.00003  -0.00000   0.00001
 220        4ZZ         0.00001  -0.00002   0.00000  -0.00002   0.00001
 221        4XY         0.00004  -0.00000   0.00002  -0.00001  -0.00001
 222        4XZ         0.00001  -0.00000   0.00003   0.00002   0.00001
 223        4YZ         0.00000  -0.00000   0.00002  -0.00003   0.00001
 224 20  C  1S          0.00000  -0.00000   0.00001  -0.00001  -0.00001
 225        2S         -0.00002  -0.00000  -0.00001  -0.00006  -0.00002
 226        2PX        -0.00002   0.00000  -0.00011  -0.00001   0.00000
 227        2PY         0.00002   0.00000   0.00006   0.00000  -0.00001
 228        2PZ         0.00001  -0.00000  -0.00003   0.00002   0.00000
 229        3S          0.00036   0.00007   0.00019   0.00093   0.00030
 230        3PX        -0.00024   0.00010   0.00111   0.00018  -0.00010
 231        3PY         0.00003   0.00006  -0.00046   0.00032   0.00007
 232        3PZ         0.00021   0.00010  -0.00056   0.00032   0.00016
 233        4XX         0.00003  -0.00001   0.00010  -0.00001  -0.00000
 234        4YY         0.00001  -0.00000   0.00003  -0.00001  -0.00002
 235        4ZZ         0.00002   0.00001   0.00003  -0.00000  -0.00000
 236        4XY        -0.00000  -0.00000   0.00003  -0.00001   0.00000
 237        4XZ        -0.00001   0.00000   0.00002  -0.00001  -0.00000
 238        4YZ         0.00000   0.00001  -0.00002   0.00001   0.00000
 239 21  C  1S          0.00001  -0.00000  -0.00000  -0.00003   0.00001
 240        2S          0.00005  -0.00002   0.00001  -0.00011   0.00003
 241        2PX        -0.00000  -0.00000   0.00002   0.00003  -0.00001
 242        2PY         0.00002  -0.00000  -0.00000  -0.00004   0.00002
 243        2PZ         0.00000  -0.00000   0.00002   0.00003  -0.00000
 244        3S         -0.00049   0.00024  -0.00009   0.00103  -0.00033
 245        3PX         0.00023  -0.00005  -0.00011   0.00039   0.00012
 246        3PY         0.00011  -0.00016  -0.00002   0.00014  -0.00003
 247        3PZ         0.00019  -0.00020   0.00004  -0.00039   0.00013
 248        4XX        -0.00000  -0.00001  -0.00003  -0.00004   0.00001
 249        4YY         0.00001   0.00000  -0.00000  -0.00006   0.00002
 250        4ZZ         0.00001  -0.00000  -0.00001  -0.00004   0.00001
 251        4XY        -0.00000   0.00000  -0.00001   0.00000  -0.00000
 252        4XZ        -0.00001   0.00001  -0.00001   0.00000  -0.00001
 253        4YZ        -0.00001   0.00001  -0.00000   0.00001  -0.00000
 254 22  C  1S          0.00000  -0.00000   0.00001   0.00001   0.00000
 255        2S          0.00000  -0.00001   0.00005   0.00004   0.00001
 256        2PX         0.00001   0.00000   0.00003   0.00001   0.00000
 257        2PY        -0.00000  -0.00000  -0.00002  -0.00000   0.00000
 258        2PZ         0.00000  -0.00000   0.00000   0.00000   0.00000
 259        3S          0.00004  -0.00004  -0.00079  -0.00060  -0.00004
 260        3PX        -0.00008   0.00001   0.00057   0.00019  -0.00000
 261        3PY        -0.00005   0.00001   0.00040  -0.00016  -0.00006
 262        3PZ        -0.00009  -0.00001   0.00003  -0.00029  -0.00009
 263        4XX        -0.00001   0.00000  -0.00004  -0.00001  -0.00000
 264        4YY        -0.00000  -0.00000   0.00000   0.00000   0.00000
 265        4ZZ        -0.00000  -0.00000  -0.00000  -0.00000  -0.00000
 266        4XY        -0.00000   0.00000  -0.00003  -0.00000   0.00000
 267        4XZ         0.00000  -0.00000   0.00001   0.00000   0.00000
 268        4YZ         0.00000   0.00000  -0.00000  -0.00001  -0.00000
 269 23  H  1S         -0.00001   0.00000   0.00014   0.00001  -0.00001
 270        2S         -0.00001   0.00008  -0.00046   0.00011   0.00003
 271        3PX         0.00000   0.00000  -0.00008   0.00000   0.00001
 272        3PY         0.00000   0.00000  -0.00002  -0.00000   0.00000
 273        3PZ        -0.00001  -0.00000  -0.00001   0.00000  -0.00000
 274 24  N  1S         -0.00000  -0.00000   0.00000   0.00002  -0.00000
 275        2S         -0.00001  -0.00000   0.00000   0.00008  -0.00001
 276        2PX         0.00000   0.00000  -0.00000  -0.00000   0.00000
 277        2PY        -0.00000  -0.00000  -0.00000  -0.00001  -0.00001
 278        2PZ         0.00001  -0.00000   0.00000   0.00001   0.00000
 279        3S          0.00001  -0.00002  -0.00009  -0.00086   0.00002
 280        3PX         0.00001  -0.00003  -0.00012   0.00033  -0.00005
 281        3PY         0.00000   0.00003   0.00003   0.00008   0.00004
 282        3PZ        -0.00006   0.00005   0.00007   0.00005  -0.00002
 283        4XX        -0.00000   0.00000   0.00002   0.00001   0.00000
 284        4YY        -0.00001  -0.00000   0.00000   0.00003  -0.00001
 285        4ZZ        -0.00001  -0.00000  -0.00000   0.00003  -0.00001
 286        4XY        -0.00000   0.00000   0.00001   0.00000  -0.00000
 287        4XZ         0.00000  -0.00000   0.00000  -0.00001   0.00000
 288        4YZ         0.00000  -0.00000  -0.00000  -0.00001   0.00000
 289 25  H  1S          0.00003  -0.00001  -0.00001  -0.00002   0.00003
 290        2S         -0.00010   0.00013   0.00002   0.00001  -0.00007
 291        3PX        -0.00000   0.00001   0.00000  -0.00000  -0.00000
 292        3PY        -0.00000   0.00000  -0.00000  -0.00002   0.00000
 293        3PZ         0.00001  -0.00000  -0.00000   0.00001   0.00000
 294 26  C  1S         -0.00000   0.00000  -0.00000  -0.00000  -0.00000
 295        2S         -0.00001   0.00000  -0.00001  -0.00001  -0.00001
 296        2PX         0.00000  -0.00000   0.00001   0.00001   0.00000
 297        2PY        -0.00001   0.00000   0.00000  -0.00001  -0.00000
 298        2PZ        -0.00000   0.00000  -0.00001   0.00000  -0.00000
 299        3S          0.00007   0.00004  -0.00008   0.00039   0.00010
 300        3PX        -0.00003  -0.00000  -0.00012  -0.00029  -0.00003
 301        3PY        -0.00005   0.00001   0.00007  -0.00006  -0.00002
 302        3PZ        -0.00004   0.00002   0.00027  -0.00002   0.00001
 303        4XX        -0.00001   0.00000   0.00000  -0.00001  -0.00000
 304        4YY        -0.00001   0.00000   0.00001  -0.00001  -0.00000
 305        4ZZ        -0.00000   0.00000  -0.00000  -0.00001   0.00000
 306        4XY         0.00000   0.00000   0.00000   0.00000   0.00000
 307        4XZ         0.00000  -0.00000  -0.00000  -0.00000  -0.00000
 308        4YZ         0.00000   0.00000   0.00001   0.00001   0.00000
 309 27  H  1S         -0.00001   0.00000   0.00003  -0.00001  -0.00001
 310        2S         -0.00002   0.00000   0.00004  -0.00010  -0.00003
 311        3PX         0.00000  -0.00000  -0.00002  -0.00000   0.00000
 312        3PY         0.00000  -0.00000  -0.00002   0.00000   0.00000
 313        3PZ         0.00000   0.00000   0.00001   0.00000   0.00000
 314 28  H  1S          0.00000  -0.00000   0.00002   0.00001  -0.00000
 315        2S          0.00001  -0.00000   0.00005   0.00007   0.00001
 316        3PX        -0.00000   0.00000  -0.00000   0.00000  -0.00000
 317        3PY         0.00000  -0.00000   0.00000  -0.00000   0.00000
 318        3PZ         0.00000  -0.00000  -0.00001   0.00000  -0.00000
                           6         7         8         9        10
                           O         O         O         O         O
     Eigenvalues --   -19.21304 -19.21296 -19.15705 -19.14496 -14.39736
   1 1   C  1S         -0.00002  -0.00003  -0.00002  -0.00000  -0.00000
   2        2S         -0.00014  -0.00017  -0.00013  -0.00004  -0.00001
   3        2PX        -0.00002  -0.00002  -0.00002   0.00000  -0.00000
   4        2PY         0.00003  -0.00002  -0.00001  -0.00005  -0.00000
   5        2PZ        -0.00006   0.00007  -0.00006  -0.00005  -0.00000
   6        3S          0.00123   0.00108   0.00057  -0.00001   0.00008
   7        3PX        -0.00042  -0.00051   0.00033  -0.00045   0.00004
   8        3PY        -0.00068  -0.00002   0.00048   0.00057  -0.00001
   9        3PZ         0.00031  -0.00014   0.00061   0.00055   0.00000
  10        4XX         0.00003   0.00003  -0.00003   0.00006  -0.00000
  11        4YY        -0.00002  -0.00000   0.00003  -0.00000  -0.00000
  12        4ZZ         0.00000  -0.00003  -0.00002  -0.00002  -0.00000
  13        4XY        -0.00001   0.00004   0.00001   0.00001  -0.00000
  14        4XZ        -0.00002  -0.00001   0.00001  -0.00002   0.00000
  15        4YZ        -0.00001  -0.00001   0.00002   0.00001   0.00000
  16 2   O  1S         -0.00007  -0.00013   0.00001   0.00000   0.00000
  17        2S         -0.00007  -0.00018   0.00002  -0.00001   0.00001
  18        2PX        -0.00001   0.00006   0.00001  -0.00003   0.00000
  19        2PY         0.00003   0.00004   0.00004  -0.00001  -0.00000
  20        2PZ         0.00003  -0.00004   0.00001   0.00001   0.00000
  21        3S          0.00041   0.00054   0.00010   0.00029  -0.00004
  22        3PX        -0.00015  -0.00020  -0.00011   0.00014  -0.00001
  23        3PY        -0.00003  -0.00018  -0.00014   0.00005  -0.00000
  24        3PZ        -0.00020   0.00020  -0.00002   0.00012  -0.00002
  25        4XX         0.00001  -0.00010   0.00005   0.00000   0.00001
  26        4YY        -0.00003  -0.00015   0.00001   0.00001   0.00001
  27        4ZZ        -0.00008  -0.00013   0.00003   0.00004   0.00000
  28        4XY         0.00001   0.00004  -0.00000  -0.00000  -0.00000
  29        4XZ         0.00002  -0.00003  -0.00001   0.00001  -0.00000
  30        4YZ         0.00000  -0.00002  -0.00002   0.00000  -0.00000
  31 3   H  1S          0.00003  -0.00007   0.00003   0.00005  -0.00000
  32        2S         -0.00046   0.00030  -0.00023  -0.00016  -0.00000
  33        3PX         0.00003   0.00002  -0.00001  -0.00001  -0.00000
  34        3PY         0.00004  -0.00001   0.00001  -0.00000   0.00000
  35        3PZ        -0.00007   0.00002  -0.00002  -0.00001  -0.00000
  36 4   P  1S          0.00001   0.00001  -0.00000   0.00002  -0.00000
  37        2S         -0.00001  -0.00000  -0.00004  -0.00007  -0.00000
  38        2PX         0.00002  -0.00001   0.00001  -0.00002   0.00000
  39        2PY        -0.00002   0.00006   0.00000   0.00000   0.00000
  40        2PZ         0.00006   0.00001   0.00001   0.00001   0.00000
  41        3S          0.00028   0.00034  -0.00015   0.00090  -0.00001
  42        3PX         0.00007   0.00011  -0.00006   0.00012  -0.00001
  43        3PY         0.00011  -0.00014  -0.00005   0.00006  -0.00000
  44        3PZ        -0.00019  -0.00010  -0.00008   0.00011  -0.00000
  45        4S         -0.00335  -0.00321   0.00075  -0.00322   0.00005
  46        4PX        -0.00041  -0.00045   0.00019   0.00002   0.00002
  47        4PY        -0.00120   0.00183   0.00030  -0.00111   0.00000
  48        4PZ         0.00168   0.00173  -0.00016  -0.00221   0.00001
  49        5XX        -0.00000  -0.00002  -0.00004  -0.00025  -0.00000
  50        5YY         0.00000   0.00028  -0.00006  -0.00027  -0.00000
  51        5ZZ         0.00017  -0.00013  -0.00001  -0.00019  -0.00000
  52        5XY         0.00001  -0.00000  -0.00001  -0.00002   0.00000
  53        5XZ         0.00022  -0.00004  -0.00002  -0.00004  -0.00000
  54        5YZ        -0.00011   0.00001  -0.00000   0.00005   0.00000
  55 5   P  1S         -0.00000   0.00000   0.00002  -0.00000   0.00000
  56        2S         -0.00007   0.00003  -0.00007  -0.00003   0.00000
  57        2PX         0.00000  -0.00000  -0.00000  -0.00000   0.00000
  58        2PY        -0.00000   0.00000   0.00002  -0.00000   0.00000
  59        2PZ         0.00000  -0.00000   0.00000  -0.00000   0.00000
  60        3S         -0.00023   0.00015   0.00095  -0.00011   0.00000
  61        3PX         0.00003   0.00000   0.00004   0.00004  -0.00000
  62        3PY         0.00007  -0.00004  -0.00008   0.00002  -0.00000
  63        3PZ         0.00002   0.00003   0.00015   0.00000  -0.00000
  64        4S          0.00165  -0.00072  -0.00359  -0.00004  -0.00003
  65        4PX        -0.00059   0.00051  -0.00041  -0.00014  -0.00001
  66        4PY        -0.00057   0.00021   0.00007   0.00005   0.00004
  67        4PZ        -0.00009  -0.00004  -0.00248  -0.00022  -0.00002
  68        5XX        -0.00004   0.00001  -0.00028   0.00000   0.00000
  69        5YY        -0.00007   0.00001  -0.00028  -0.00004  -0.00000
  70        5ZZ        -0.00003  -0.00000  -0.00020  -0.00003   0.00000
  71        5XY         0.00003  -0.00001  -0.00002   0.00000  -0.00000
  72        5XZ         0.00001  -0.00002   0.00002  -0.00004  -0.00000
  73        5YZ         0.00002  -0.00001   0.00003  -0.00002  -0.00000
  74 6   O  1S          0.99264  -0.00973   0.00004   0.00003   0.00000
  75        2S          0.02578  -0.00049   0.00009  -0.00000   0.00000
  76        2PX        -0.00037  -0.00003   0.00000   0.00003   0.00000
  77        2PY        -0.00070   0.00001   0.00001  -0.00005  -0.00000
  78        2PZ         0.00046   0.00001   0.00002  -0.00003   0.00000
  79        3S          0.01274   0.00135  -0.00043  -0.00003  -0.00000
  80        3PX         0.00057   0.00044  -0.00007  -0.00009  -0.00000
  81        3PY         0.00018  -0.00015  -0.00007   0.00023   0.00000
  82        3PZ         0.00030   0.00017  -0.00012   0.00028  -0.00000
  83        4XX        -0.00826  -0.00003   0.00008   0.00001   0.00000
  84        4YY        -0.00826  -0.00014   0.00006  -0.00001   0.00000
  85        4ZZ        -0.00828  -0.00006   0.00006   0.00005   0.00000
  86        4XY        -0.00003  -0.00003   0.00000   0.00002   0.00000
  87        4XZ        -0.00003   0.00000  -0.00001   0.00002  -0.00000
  88        4YZ         0.00003   0.00003  -0.00000  -0.00000  -0.00000
  89 7   H  1S          0.00044   0.00002  -0.00001   0.00001  -0.00000
  90        2S         -0.00093   0.00039  -0.00002  -0.00005   0.00000
  91        3PX        -0.00004   0.00003  -0.00002   0.00001   0.00000
  92        3PY         0.00000  -0.00000  -0.00001  -0.00000  -0.00000
  93        3PZ        -0.00004   0.00004   0.00001  -0.00001   0.00000
  94 8   O  1S          0.00965   0.99263  -0.00000   0.00006   0.00000
  95        2S          0.00019   0.02572  -0.00000   0.00001   0.00000
  96        2PX        -0.00002  -0.00002   0.00000   0.00001  -0.00000
  97        2PY         0.00003   0.00036  -0.00000  -0.00002   0.00000
  98        2PZ         0.00002   0.00089  -0.00000  -0.00005   0.00000
  99        3S          0.00060   0.01295  -0.00002  -0.00006  -0.00001
 100        3PX         0.00008   0.00012  -0.00002  -0.00002  -0.00000
 101        3PY         0.00006   0.00058  -0.00000   0.00022  -0.00001
 102        3PZ        -0.00017  -0.00053   0.00001   0.00033  -0.00000
 103        4XX        -0.00013  -0.00825  -0.00000   0.00005   0.00000
 104        4YY        -0.00015  -0.00831   0.00000   0.00008   0.00000
 105        4ZZ        -0.00018  -0.00829  -0.00001   0.00004   0.00000
 106        4XY         0.00004   0.00001   0.00000   0.00000  -0.00000
 107        4XZ        -0.00004  -0.00000  -0.00000   0.00001   0.00000
 108        4YZ         0.00003  -0.00002   0.00001   0.00001  -0.00000
 109 9   H  1S          0.00008   0.00044   0.00000  -0.00010   0.00000
 110        2S         -0.00030  -0.00089   0.00003   0.00032  -0.00001
 111        3PX         0.00001  -0.00001  -0.00000   0.00000  -0.00000
 112        3PY        -0.00002  -0.00006   0.00000   0.00004  -0.00000
 113        3PZ        -0.00003   0.00003  -0.00000   0.00003   0.00000
 114 10  O  1S          0.00057  -0.00013   0.00006  -0.00003   0.00000
 115        2S          0.00010  -0.00011   0.00003  -0.00005   0.00000
 116        2PX         0.00000  -0.00000   0.00003   0.00003   0.00000
 117        2PY         0.00000   0.00000  -0.00002   0.00001   0.00000
 118        2PZ        -0.00001  -0.00001  -0.00006  -0.00003   0.00000
 119        3S         -0.00054   0.00052  -0.00015   0.00014  -0.00000
 120        3PX        -0.00012   0.00006  -0.00001  -0.00008  -0.00000
 121        3PY         0.00002  -0.00008   0.00010  -0.00010  -0.00000
 122        3PZ        -0.00003   0.00009   0.00041   0.00014  -0.00000
 123        4XX         0.00008  -0.00007   0.00005  -0.00004  -0.00000
 124        4YY         0.00011  -0.00006   0.00005  -0.00009   0.00000
 125        4ZZ         0.00006  -0.00006   0.00007  -0.00004   0.00000
 126        4XY         0.00002  -0.00000  -0.00000   0.00001  -0.00000
 127        4XZ        -0.00000   0.00001   0.00004   0.00000  -0.00000
 128        4YZ        -0.00002   0.00000  -0.00003  -0.00002  -0.00000
 129 11  H  1S          0.00000  -0.00001  -0.00003   0.00006   0.00000
 130        2S         -0.00005   0.00005   0.00004  -0.00003  -0.00001
 131        3PX         0.00000  -0.00000   0.00001   0.00000  -0.00000
 132        3PY         0.00003  -0.00001   0.00000  -0.00003   0.00000
 133        3PZ        -0.00001  -0.00000  -0.00000  -0.00001  -0.00000
 134 12  O  1S          0.00005   0.00000   0.00005  -0.00000  -0.00001
 135        2S          0.00004   0.00000  -0.00003  -0.00001  -0.00002
 136        2PX        -0.00001   0.00000  -0.00002   0.00000  -0.00000
[...]
 238         V                 2.150685          3.477110
 239         V                 2.182236          3.502637
 240         V                 2.200804          3.596534
 241         V                 2.207508          3.560286
 242         V                 2.230571          3.351405
 243         V                 2.248249          3.543564
 244         V                 2.263027          3.550968
 245         V                 2.273231          3.572839
 246         V                 2.284133          3.697186
 247         V                 2.299811          3.682810
 248         V                 2.306921          3.725671
 249         V                 2.316700          3.698797
 250         V                 2.329562          3.760185
 251         V                 2.343492          3.356327
 252         V                 2.348546          3.706034
 253         V                 2.363284          3.701293
 254         V                 2.386277          3.769687
 255         V                 2.397561          3.915090
 256         V                 2.409340          3.847157
 257         V                 2.432403          4.006549
 258         V                 2.456533          4.196848
 259         V                 2.462354          4.227158
 260         V                 2.469627          3.950424
 261         V                 2.476108          3.693970
 262         V                 2.496105          3.662839
 263         V                 2.549963          3.973188
 264         V                 2.582156          4.017673
 265         V                 2.586936          3.866706
 266         V                 2.588569          3.665578
 267         V                 2.590495          4.078870
 268         V                 2.597061          3.700435
 269         V                 2.604756          3.843602
 270         V                 2.611192          4.021799
 271         V                 2.619362          3.967904
 272         V                 2.629957          3.830378
 273         V                 2.635680          3.790228
 274         V                 2.658587          3.995282
 275         V                 2.663398          3.917172
 276         V                 2.679913          4.015675
 277         V                 2.686702          3.981233
 278         V                 2.707411          4.027140
 279         V                 2.711919          4.022897
 280         V                 2.756524          4.264831
 281         V                 2.783478          4.616322
 282         V                 2.799851          4.425387
 283         V                 2.805190          4.662190
 284         V                 2.830766          4.216069
 285         V                 2.877652          4.185656
 286         V                 2.935632          4.508445
 287         V                 2.957380          4.645309
 288         V                 3.008184          4.628996
 289         V                 3.130899          5.124062
 290         V                 3.187177          4.880849
 291         V                 3.217729          4.967987
 292         V                 3.263537          5.123314
 293         V                 3.323130          6.387128
 294         V                 3.330546          6.290390
 295         V                 3.341121          5.276042
 296         V                 3.346460          6.371938
 297         V                 3.383930          6.230782
 298         V                 3.398605          5.417217
 299         V                 3.419006          5.958781
 300         V                 3.433377          6.144176
 301         V                 3.481043          9.285306
 302         V                 3.529859         10.176243
 303         V                 3.736816          6.164624
 304         V                 3.839496          9.537595
 305         V                 3.872625          9.772556
 306         V                 3.967375         10.044934
 307         V                 4.007254         10.440826
 308         V                 4.028301         10.290339
 309         V                 4.056180         10.126588
 310         V                 4.140226         10.125702
 311         V                 4.152521         10.252487
 312         V                 4.185269         10.343586
 313         V                 4.266489         10.131372
 314         V                 4.299339         10.551079
 315         V                 4.357353         10.749888
 316         V                 4.417530         10.197857
 317         V                 4.600147         10.518209
 318         V                 4.703124         10.182391
 Total kinetic energy from orbitals= 1.526904490156D+03
                          Isotropic Fermi Contact Couplings
        Atom                 a.u.       MegaHertz       Gauss      10(-4) cm-1
     1  C(13)              0.00345       3.87293       1.38196       1.29187
     2  O(17)              0.01205      -7.30711      -2.60736      -2.43739
     3  H(1)              -0.00070      -3.11305      -1.11081      -1.03840
     4  P(31)             -0.00204      -3.69050      -1.31686      -1.23102
     5  P(31)              0.00251       4.54481       1.62170       1.51598
     6  O(17)             -0.00118       0.71457       0.25498       0.23836
     7  H(1)              -0.00007      -0.33406      -0.11920      -0.11143
     8  O(17)             -0.00032       0.19134       0.06828       0.06382
     9  H(1)              -0.00000      -0.01686      -0.00602      -0.00562
    10  O(17)              0.00795      -4.81681      -1.71876      -1.60672
    11  H(1)               0.00043       1.91018       0.68160       0.63717
    12  O(17)              0.00110      -0.66563      -0.23751      -0.22203
    13  H(1)              -0.00038      -1.69410      -0.60450      -0.56509
    14  O(17)              0.00561      -3.39846      -1.21265      -1.13360
    15  O(17)              0.00061      -0.36840      -0.13145      -0.12288
    16  C(13)             -0.01036     -11.64750      -4.15612      -3.88519
    17  H(1)               0.01321      59.04882      21.07009      19.69657
    18  H(1)               0.00165       7.38372       2.63469       2.46294
    19  C(13)              0.02514      28.26316      10.08500       9.42758
    20  C(13)             -0.01217     -13.68238      -4.88221      -4.56395
    21  C(13)              0.01845      20.74215       7.40132       6.91884
    22  C(13)              0.01007      11.32274       4.04024       3.77686
    23  H(1)               0.00071       3.15893       1.12718       1.05371
    24  N(14)             -0.00238      -0.76793      -0.27402      -0.25615
    25  H(1)              -0.00390     -17.41383      -6.21369      -5.80863
    26  C(13)              0.02630      29.56602      10.54989       9.86216
    27  H(1)              -0.00222      -9.91285      -3.53715      -3.30657
    28  H(1)              -0.00429     -19.19373      -6.84880      -6.40234
 --------------------------------------------------------
       Center         ----  Spin Dipole Couplings  ----
                      3XX-RR        3YY-RR        3ZZ-RR
 --------------------------------------------------------
     1   Atom       -0.033767      0.055951     -0.022184
     2   Atom       -0.081472      0.220006     -0.138534
     3   Atom        0.007145     -0.005537     -0.001608
     4   Atom        0.006537     -0.004169     -0.002368
     5   Atom       -0.010557      0.026289     -0.015732
     6   Atom        0.001151     -0.002278      0.001127
     7   Atom        0.001391     -0.000767     -0.000624
     8   Atom       -0.002448      0.006030     -0.003582
     9   Atom        0.000943     -0.000291     -0.000652
    10   Atom        0.009431     -0.011723      0.002291
    11   Atom       -0.000438      0.001769     -0.001331
    12   Atom       -0.047178      0.052786     -0.005608
    13   Atom        0.001865      0.002088     -0.003953
    14   Atom       -0.106715      0.223270     -0.116554
    15   Atom        0.032179     -0.016488     -0.015691
    16   Atom       -0.009864      0.013489     -0.003625
    17   Atom       -0.000447      0.004211     -0.003764
    18   Atom        0.002362     -0.002621      0.000259
    19   Atom       -0.150114      0.182169     -0.032056
    20   Atom        0.024433     -0.027551      0.003118
    21   Atom       -0.096819      0.100635     -0.003816
    22   Atom       -0.058552      0.045159      0.013393
    23   Atom        0.000177     -0.001622      0.001445
    24   Atom        0.063098     -0.089888      0.026790
    25   Atom       -0.013432      0.000769      0.012664
    26   Atom       -0.132702      0.179998     -0.047296
    27   Atom       -0.009089     -0.000727      0.009817
    28   Atom        0.025246     -0.008729     -0.016517
 --------------------------------------------------------
                        XY            XZ            YZ
 --------------------------------------------------------
     1   Atom       -0.020272      0.007816     -0.044716
     2   Atom        0.164530     -0.026380     -0.071605
     3   Atom       -0.002632      0.012069     -0.004261
     4   Atom       -0.003046     -0.003876      0.001498
     5   Atom        0.022864      0.006980      0.027854
     6   Atom        0.000469     -0.001757      0.000447
     7   Atom        0.000345      0.000456      0.000122
     8   Atom        0.001648     -0.000486      0.000859
     9   Atom        0.001277     -0.000632     -0.000479
    10   Atom       -0.011749      0.022947     -0.009277
    11   Atom       -0.000971      0.000874     -0.000834
    12   Atom       -0.004957      0.004701     -0.068703
    13   Atom       -0.000487      0.003507     -0.003558
    14   Atom       -0.034981     -0.000729     -0.008322
    15   Atom       -0.002741      0.010687     -0.000216
    16   Atom        0.002620      0.000929     -0.027248
    17   Atom        0.005192      0.001291      0.003492
    18   Atom        0.000518     -0.004042      0.002380
    19   Atom       -0.036595      0.029149     -0.206690
    20   Atom        0.011754     -0.011138      0.040147
    21   Atom       -0.095367      0.074070     -0.168619
    22   Atom       -0.050981      0.045354     -0.099569
    23   Atom       -0.000632     -0.001560      0.004405
    24   Atom        0.023205      0.013413      0.080402
    25   Atom       -0.009225     -0.007002      0.011748
    26   Atom       -0.081629      0.049367     -0.194582
    27   Atom       -0.006027     -0.005186      0.008371
    28   Atom        0.004487      0.000187     -0.007056
 --------------------------------------------------------


 ---------------------------------------------------------------------------------
              Anisotropic Spin Dipole Couplings in Principal Axis System
 ---------------------------------------------------------------------------------

       Atom             a.u.   MegaHertz   Gauss  10(-4) cm-1        Axes

              Baa    -0.0428    -5.745    -2.050    -1.916  0.2413  0.4409  0.8645
     1 C(13)  Bbb    -0.0376    -5.042    -1.799    -1.682  0.9523  0.0638 -0.2984
              Bcc     0.0804    10.787     3.849     3.598 -0.1867  0.8953 -0.4045
 
              Baa    -0.1575    11.397     4.067     3.802  0.6789 -0.4113 -0.6083
     2 O(17)  Bbb    -0.1480    10.707     3.821     3.572  0.6187 -0.1257  0.7755
              Bcc     0.3055   -22.104    -7.887    -7.373  0.3954  0.9028 -0.1691
 
              Baa    -0.0109    -5.827    -2.079    -1.944 -0.4698  0.3950  0.7895
     3 H(1)   Bbb    -0.0056    -3.014    -1.075    -1.005  0.3887  0.8955 -0.2167
              Bcc     0.0166     8.841     3.155     2.949  0.7926 -0.2051  0.5743
 
              Baa    -0.0051    -1.108    -0.395    -0.370  0.1422  0.9398 -0.3107
     4 P(31)  Bbb    -0.0037    -0.808    -0.288    -0.270  0.4027  0.2318  0.8855
              Bcc     0.0089     1.916     0.684     0.639  0.9042 -0.2511 -0.3455
 
              Baa    -0.0309    -6.672    -2.381    -2.225  0.3003 -0.5123  0.8046
     5 P(31)  Bbb    -0.0186    -4.021    -1.435    -1.341  0.8806 -0.1753 -0.4403
              Bcc     0.0495    10.693     3.815     3.567  0.3666  0.8407  0.3985
 
              Baa    -0.0025     0.181     0.065     0.060 -0.2314  0.9456 -0.2285
     6 O(17)  Bbb    -0.0004     0.029     0.010     0.010  0.6651  0.3252  0.6723
              Bcc     0.0029    -0.210    -0.075    -0.070  0.7100  0.0036 -0.7042
 
              Baa    -0.0008    -0.449    -0.160    -0.150 -0.0635  0.9206 -0.3853
     7 H(1)   Bbb    -0.0007    -0.376    -0.134    -0.125 -0.2545  0.3584  0.8982
              Bcc     0.0015     0.825     0.294     0.275  0.9650  0.1551  0.2116
 
              Baa    -0.0040     0.287     0.103     0.096  0.4432 -0.1490  0.8840
     8 O(17)  Bbb    -0.0024     0.176     0.063     0.059  0.8785 -0.1243 -0.4613
              Bcc     0.0064    -0.463    -0.165    -0.154  0.1786  0.9810  0.0758
 
              Baa    -0.0011    -0.594    -0.212    -0.198 -0.4443  0.8521  0.2766
     9 H(1)   Bbb    -0.0009    -0.464    -0.165    -0.155  0.3872 -0.0958  0.9170
              Bcc     0.0020     1.057     0.377     0.353  0.8079  0.5146 -0.2874
 
              Baa    -0.0177     1.278     0.456     0.426  0.6823  0.4526 -0.5741
    10 O(17)  Bbb    -0.0163     1.180     0.421     0.394 -0.0999  0.8357  0.5400
              Bcc     0.0340    -2.459    -0.877    -0.820  0.7242 -0.3111  0.6155
 
              Baa    -0.0019    -1.003    -0.358    -0.335 -0.4810  0.0719  0.8738
    11 H(1)   Bbb    -0.0006    -0.307    -0.109    -0.102  0.7898  0.4683  0.3962
              Bcc     0.0025     1.310     0.467     0.437 -0.3807  0.8807 -0.2820
 
              Baa    -0.0514     3.721     1.328     1.241 -0.2882  0.5175  0.8057
    12 O(17)  Bbb    -0.0471     3.410     1.217     1.138  0.9565  0.1961  0.2162
              Bcc     0.0985    -7.131    -2.545    -2.379 -0.0461  0.8329 -0.5515
 
              Baa    -0.0067    -3.565    -1.272    -1.189 -0.3408  0.3372  0.8776
    13 H(1)   Bbb     0.0015     0.793     0.283     0.265  0.7252  0.6883  0.0172
              Bcc     0.0052     2.772     0.989     0.925 -0.5982  0.6423 -0.4791
 
              Baa    -0.1171     8.475     3.024     2.827  0.2261  0.0470  0.9730
    14 O(17)  Bbb    -0.1100     7.960     2.840     2.655  0.9685  0.0959 -0.2297
              Bcc     0.2271   -16.435    -5.864    -5.482 -0.1041  0.9943 -0.0239
 
              Baa    -0.0181     1.307     0.466     0.436 -0.2145 -0.2442  0.9457
    15 O(17)  Bbb    -0.0165     1.197     0.427     0.399 -0.0004  0.9683  0.2500
              Bcc     0.0346    -2.504    -0.893    -0.835  0.9767 -0.0533  0.2078
 
              Baa    -0.0240    -3.221    -1.149    -1.074 -0.1610  0.5876  0.7930
    16 C(13)  Bbb    -0.0095    -1.281    -0.457    -0.427  0.9863  0.0664  0.1510
              Bcc     0.0335     4.502     1.606     1.502  0.0360  0.8064 -0.5902
 
              Baa    -0.0053    -2.802    -1.000    -0.935  0.2702 -0.4603  0.8457
    17 H(1)   Bbb    -0.0034    -1.808    -0.645    -0.603  0.8193 -0.3515 -0.4531
              Bcc     0.0086     4.610     1.645     1.538  0.5058  0.8152  0.2821
 
              Baa    -0.0050    -2.666    -0.951    -0.889 -0.3835  0.6940 -0.6093
    18 H(1)   Bbb    -0.0006    -0.338    -0.121    -0.113  0.5217  0.7072  0.4771
              Bcc     0.0056     3.004     1.072     1.002  0.7621 -0.1349 -0.6333
 
              Baa    -0.1623   -21.779    -7.771    -7.265 -0.6112  0.3585  0.7056
    19 C(13)  Bbb    -0.1502   -20.156    -7.192    -6.723  0.7851  0.3871  0.4835
              Bcc     0.3125    41.936    14.964    13.988 -0.0998  0.8495 -0.5180
 
              Baa    -0.0583    -7.822    -2.791    -2.609 -0.1900  0.8056 -0.5612
    20 C(13)  Bbb     0.0262     3.515     1.254     1.173  0.8636  0.4091  0.2948
              Bcc     0.0321     4.306     1.537     1.436 -0.4671  0.4286  0.7734
 
              Baa    -0.1379   -18.507    -6.604    -6.173  0.9104  0.0766 -0.4066
    21 C(13)  Bbb    -0.1273   -17.078    -6.094    -5.697  0.2666  0.6429  0.7181
              Bcc     0.2652    35.586    12.698    11.870 -0.3164  0.7621 -0.5648
 
              Baa    -0.0808   -10.847    -3.870    -3.618  0.9416  0.1385 -0.3069
    22 C(13)  Bbb    -0.0714    -9.576    -3.417    -3.194  0.1361  0.6773  0.7230
              Bcc     0.1522    20.422     7.287     6.812 -0.3080  0.7225 -0.6190
 
              Baa    -0.0048    -2.553    -0.911    -0.852 -0.0827  0.8038 -0.5891
    23 H(1)   Bbb    -0.0003    -0.179    -0.064    -0.060  0.9454  0.2503  0.2088
              Bcc     0.0051     2.732     0.975     0.911 -0.3153  0.5396  0.7806
 
              Baa    -0.1320    -5.091    -1.816    -1.698 -0.0755  0.8922 -0.4454
    24 N(14)  Bbb     0.0435     1.678     0.599     0.560  0.7324 -0.2535 -0.6319
              Bcc     0.0885     3.413     1.218     1.138  0.6766  0.3739  0.6343
 
              Baa    -0.0180    -9.618    -3.432    -3.208  0.9082  0.4157  0.0481
    25 H(1)   Bbb    -0.0051    -2.721    -0.971    -0.908 -0.3043  0.7349 -0.6060
              Bcc     0.0231    12.338     4.403     4.116 -0.2873  0.5358  0.7940
 
              Baa    -0.1597   -21.428    -7.646    -7.148 -0.3032  0.4178  0.8565
    26 C(13)  Bbb    -0.1525   -20.458    -7.300    -6.824  0.9296  0.3274  0.1694
              Bcc     0.3121    41.886    14.946    13.972 -0.2096  0.8475 -0.4876
 
              Baa    -0.0123    -6.550    -2.337    -2.185  0.8988  0.4359  0.0458
    27 H(1)   Bbb    -0.0044    -2.321    -0.828    -0.774 -0.3357  0.7520 -0.5672
              Bcc     0.0166     8.871     3.165     2.959 -0.2817  0.4945  0.8223
 
              Baa    -0.0208   -11.105    -3.963    -3.704 -0.0540  0.5184  0.8535
    28 H(1)   Bbb    -0.0050    -2.682    -0.957    -0.895 -0.1220  0.8449 -0.5209
              Bcc     0.0258    13.788     4.920     4.599  0.9911  0.1322 -0.0177
 

 ---------------------------------------------------------------------------------


 Test job not archived.
 1\1\GINC-BATAGIN2\SP\UB3LYP\6-31G(d,p)\C7H11N1O7P2(1+,2)\ORISON\22-Jan
 -2021\0\\#t B3LYP/6-31G(d,p) scrf=(solvent=water) # Gfinput IOP(6/7=3)
  Pop=hirshfeld Density Test # Units(Ang,Deg)\\w-risendronate-opt-g09.l
 og\\1,2\C,0,0.67062,0.26051,-0.22272\O,0,0.45922,0.66161,-1.56466\H,0,
 1.18705,0.31717,-2.1066\P,0,2.40713,0.73272,0.30004\P,0,0.38903,-1.579
 27,-0.02406\O,0,3.19549,0.4303,-1.07506\H,0,3.95431,1.01728,-1.22263\O
 ,0,2.42561,2.35184,0.31681\H,0,2.46108,2.70633,1.21929\O,0,1.62813,-2.
 13875,-0.88775\H,0,1.58884,-3.09366,-1.05918\O,0,-0.84941,-1.95638,-0.
 9958\H,0,-1.69249,-1.97528,-0.51572\O,0,0.23496,-2.04366,1.38168\O,0,2
 .89865,0.09068,1.54817\C,0,-0.32732,1.04108,0.67394\H,0,-0.09892,2.102
 35,0.54125\H,0,-0.12188,0.78591,1.71721\C,0,-1.7912,0.80509,0.36906\C,
 0,-2.41924,1.38428,-0.74164\C,0,-2.58473,0.01926,1.21557\C,0,-3.7733,1
 .14605,-0.95784\H,0,-1.85077,2.00915,-1.42222\N,0,-3.88987,-0.22306,1.
 02\H,0,-2.13793,-0.43916,2.09627\C,0,-4.46355,0.33586,-0.05443\H,0,-4.
 28911,1.58059,-1.80763\H,0,-5.52241,0.13098,-0.19836\\Version=EM64L-G1
 6RevA.03\State=2-A\HF=-1537.2981482\S2=0.759032\S2-1=0.\S2A=0.750053\R
 MSD=7.710e-09\Dipole=-3.5047789,2.4435516,-2.0435739\Quadrupole=20.222
 8774,-3.2115531,-17.0113243,-0.5175793,-1.6221049,7.7061978\PG=C01 [X(
 C7H11N1O7P2)]\\@


 I do not feel obliged to believe that the same God who
 has endowed us with sense, reason, and intellect has
 intended us to forgo their use.
                   --Galileo Galilei
 Job cpu time:       0 days  0 hours 46 minutes  7.1 seconds.
 Elapsed time:       0 days  0 hours  5 minutes 46.4 seconds.
 File lengths (MBytes):  RWF=    183 Int=      0 D2E=      0 Chk=      9 Scr=      1
 Normal termination of Gaussian 16 at Fri Jan 22 02:56:59 2021.
