 Entering Gaussian System, Link 0=g16
 Input=w-risendronate_anion_scf_g09.com
 Output=w-risendronate_anion_scf_g09.log
 Initial command:
 /usr/local//g16/l1.exe "/home/orison/scrgauss/Gau-23333.inp" -scrdir="/home/orison/scrgauss/"
 Entering Link 1 = /usr/local//g16/l1.exe PID=     23335.
  
 Copyright (c) 1988,1990,1992,1993,1995,1998,2003,2009,2016,
            Gaussian, Inc.  All Rights Reserved.
  
 This is part of the Gaussian(R) 16 program.  It is based on
 the Gaussian(R) 09 system (copyright 2009, Gaussian, Inc.),
 the Gaussian(R) 03 system (copyright 2003, Gaussian, Inc.),
 the Gaussian(R) 98 system (copyright 1998, Gaussian, Inc.),
 the Gaussian(R) 94 system (copyright 1995, Gaussian, Inc.),
 the Gaussian 92(TM) system (copyright 1992, Gaussian, Inc.),
 the Gaussian 90(TM) system (copyright 1990, Gaussian, Inc.),
 the Gaussian 88(TM) system (copyright 1988, Gaussian, Inc.),
 the Gaussian 86(TM) system (copyright 1986, Carnegie Mellon
 University), and the Gaussian 82(TM) system (copyright 1983,
 Carnegie Mellon University). Gaussian is a federally registered
 trademark of Gaussian, Inc.
  
 This software contains proprietary and confidential information,
 including trade secrets, belonging to Gaussian, Inc.
  
 This software is provided under written license and may be
 used, copied, transmitted, or stored only in accord with that
 written license.
  
 The following legend is applicable only to US Government
 contracts under FAR:
  
                    RESTRICTED RIGHTS LEGEND
  
 Use, reproduction and disclosure by the US Government is
 subject to restrictions as set forth in subparagraphs (a)
 and (c) of the Commercial Computer Software - Restricted
 Rights clause in FAR 52.227-19.
  
 Gaussian, Inc.
 340 Quinnipiac St., Bldg. 40, Wallingford CT 06492
  
  
 ---------------------------------------------------------------
 Warning -- This program may not be used in any manner that
 competes with the business of Gaussian, Inc. or will provide
 assistance to any competitor of Gaussian, Inc.  The licensee
 of this program is prohibited from giving any competitor of
 Gaussian, Inc. access to this program.  By using this program,
 the user acknowledges that Gaussian, Inc. is engaged in the
 business of creating and licensing software in the field of
 computational chemistry and represents and warrants to the
 licensee that it is not a competitor of Gaussian, Inc. and that
 it will not use this program in any manner prohibited above.
 ---------------------------------------------------------------
  

 Cite this work as:
 Gaussian 16, Revision A.03,
 M. J. Frisch, G. W. Trucks, H. B. Schlegel, G. E. Scuseria, 
 M. A. Robb, J. R. Cheeseman, G. Scalmani, V. Barone, 
 G. A. Petersson, H. Nakatsuji, X. Li, M. Caricato, A. V. Marenich, 
 J. Bloino, B. G. Janesko, R. Gomperts, B. Mennucci, H. P. Hratchian, 
 J. V. Ortiz, A. F. Izmaylov, J. L. Sonnenberg, D. Williams-Young, 
 F. Ding, F. Lipparini, F. Egidi, J. Goings, B. Peng, A. Petrone, 
 T. Henderson, D. Ranasinghe, V. G. Zakrzewski, J. Gao, N. Rega, 
 G. Zheng, W. Liang, M. Hada, M. Ehara, K. Toyota, R. Fukuda, 
 J. Hasegawa, M. Ishida, T. Nakajima, Y. Honda, O. Kitao, H. Nakai, 
 T. Vreven, K. Throssell, J. A. Montgomery, Jr., J. E. Peralta, 
 F. Ogliaro, M. J. Bearpark, J. J. Heyd, E. N. Brothers, K. N. Kudin, 
 V. N. Staroverov, T. A. Keith, R. Kobayashi, J. Normand, 
 K. Raghavachari, A. P. Rendell, J. C. Burant, S. S. Iyengar, 
 J. Tomasi, M. Cossi, J. M. Millam, M. Klene, C. Adamo, R. Cammi, 
 J. W. Ochterski, R. L. Martin, K. Morokuma, O. Farkas, 
 J. B. Foresman, and D. J. Fox, Gaussian, Inc., Wallingford CT, 2016.
 
 ******************************************
 Gaussian 16:  EM64L-G16RevA.03 25-Dec-2016
                22-Jan-2021 
 ******************************************
 %nproc=8
 Will use up to    8 processors via shared memory.
 %Mem=4GB
 ----------------------------------------------------------------------
 #t B3LYP/6-31G(d,p) scrf=(solvent=water) # Gfinput IOP(6/7=3) Pop=hirs
 hfeld Density Test # Units(Ang,Deg)
 ----------------------------------------------------------------------
 --------------------------
 w-risendronate-opt-g09.log
 --------------------------
 Symbolic Z-matrix:
 Charge = -1 Multiplicity = 2
 C                     0.67062   0.26051  -0.22272 
 O                     0.45922   0.66161  -1.56466 
 H                     1.18705   0.31717  -2.1066 
 P                     2.40713   0.73272   0.30004 
 P                     0.38903  -1.57927  -0.02406 
 O                     3.19549   0.4303   -1.07506 
 H                     3.95431   1.01728  -1.22263 
 O                     2.42561   2.35184   0.31681 
 H                     2.46108   2.70633   1.21929 
 O                     1.62813  -2.13875  -0.88775 
 H                     1.58884  -3.09366  -1.05918 
 O                    -0.84941  -1.95638  -0.9958 
 H                    -1.69249  -1.97528  -0.51572 
 O                     0.23496  -2.04366   1.38168 
 O                     2.89865   0.09068   1.54817 
 C                    -0.32732   1.04108   0.67394 
 H                    -0.09892   2.10235   0.54125 
 H                    -0.12188   0.78591   1.71721 
 C                    -1.7912    0.80509   0.36906 
 C                    -2.41924   1.38428  -0.74164 
 C                    -2.58473   0.01926   1.21557 
 C                    -3.7733    1.14605  -0.95784 
 H                    -1.85077   2.00915  -1.42222 
 N                    -3.88987  -0.22306   1.02 
 H                    -2.13793  -0.43916   2.09627 
 C                    -4.46355   0.33586  -0.05443 
 H                    -4.28911   1.58059  -1.80763 
 H                    -5.52241   0.13098  -0.19836 
 
                    Distance matrix (angstroms):
                    1          2          3          4          5
     1  C    0.000000
     2  O    1.416465   0.000000
     3  H    1.954204   0.970605   0.000000
     4  P    1.873960   2.697502   2.730054   0.000000
     5  P    1.871777   2.720279   2.927506   3.085947   0.000000
     6  O    2.670259   2.789334   2.260687   1.613651   3.608212
     7  H    3.514988   3.529751   2.988191   2.189352   4.570543
     8  O    2.782938   3.203669   3.398063   1.619312   4.440436
     9  H    3.356661   3.992330   4.288681   2.177858   4.919927
    10  O    2.667497   3.109111   2.776993   3.203596   1.610698
    11  H    3.576765   3.953935   3.590583   4.142253   2.191893
    12  O    2.796917   2.981608   3.248088   4.417637   1.618711
    13  H    3.266327   3.561365   4.009735   4.980523   2.175150
    14  O    2.841320   4.006207   4.318344   3.687350   1.488456
    15  O    2.851142   3.995809   4.042056   1.487157   3.399828
    16  C    1.552151   2.402909   3.247886   2.777068   2.804745
    17  H    2.137339   2.611917   3.442629   2.866070   3.756594
    18  H    2.160424   3.335236   4.068727   2.899499   2.981128
    19  C    2.589851   2.970564   3.903451   4.199521   3.254707
    20  C    3.328569   3.079796   4.000896   4.980309   4.145350
    21  C    3.567097   4.172280   5.035066   5.125026   3.596558
    22  C    4.590535   4.303154   5.158659   6.320666   5.062046
    23  H    3.294533   2.678098   3.543942   4.767092   4.455145
    24  N    4.751448   5.135922   5.986868   6.409685   4.608509
    25  H    3.708801   4.621611   5.412175   5.025666   3.490154
    26  C    5.137480   5.159513   6.011741   6.891255   5.216913
    27  H    5.371543   4.842540   5.627961   7.071123   5.920374
    28  H    6.194432   6.158591   6.978030   7.967942   6.156335
                    6          7          8          9         10
     6  O    0.000000
     7  H    0.970634   0.000000
     8  O    2.494461   2.547126   0.000000
     9  H    3.314168   3.323492   0.970253   0.000000
    10  O    3.015248   3.934944   4.717238   5.348666   0.000000
    11  H    3.872967   4.745734   5.678644   6.292226   0.970971
    12  O    4.697206   5.654187   5.568614   6.132441   2.486592
    13  H    5.476497   6.429735   6.031237   6.494604   3.345392
    14  O    4.573925   5.475888   5.025268   5.248275   2.664635
    15  O    2.661727   3.106499   2.617797   2.672313   3.538119
    16  C    3.980232   4.682937   3.069895   3.293272   4.046477
    17  H    4.032536   4.551629   2.546737   2.716271   4.797048
    18  H    4.350652   5.031055   3.301963   3.256934   4.289754
    19  C    5.205096   5.965684   4.491843   4.734922   4.683757
    20  C    5.704949   6.402201   5.052629   5.423153   5.367895
    21  C    6.231122   7.049816   5.599304   5.716691   5.179686
    22  C    7.006431   7.733217   6.442449   6.785415   6.322204
    23  H    5.298870   5.892588   4.629156   5.104477   5.439989
    24  N    7.417444   8.252211   6.856375   6.996828   6.144730
    25  H    6.265673   7.088844   5.637558   5.640398   5.096684
    26  C    7.727322   8.525807   7.187664   7.429131   6.627721
    27  H    7.607829   8.283328   7.084881   7.482954   7.049354
    28  H    8.766982   9.573029   8.268533   8.507542   7.533734
                   11         12         13         14         15
    11  H    0.000000
    12  O    2.691187   0.000000
    13  H    3.509024   0.970370   0.000000
    14  O    2.982162   2.614553   2.705525   0.000000
    15  O    4.319016   4.970935   5.441176   3.417363   0.000000
    16  C    4.875597   3.470645   3.518154   3.214448   3.474827
    17  H    5.692840   4.404435   4.503745   4.243489   3.747817
    18  H    5.068133   3.925542   3.882906   2.871651   3.104114
    19  C    5.353951   3.221107   2.919424   3.639519   4.888290
    20  C    6.018096   3.699861   3.444684   4.827426   5.932671
    21  C    5.681852   3.435789   2.787767   3.497697   5.493922
    22  C    6.836516   4.263290   3.777293   5.631496   7.204777
    23  H    6.164526   4.112175   4.089313   5.351392   5.921211
    24  N    6.525304   4.038842   3.202685   4.523231   6.816260
    25  H    5.558062   3.677382   3.062772   2.952231   5.093946
    26  C    7.028695   4.382071   3.637709   5.458986   7.538596
    27  H    7.547124   5.000076   4.588647   6.616199   8.071253
    28  H    7.855520   5.179760   4.382389   6.353967   8.600363
                   16         17         18         19         20
    16  C    0.000000
    17  H    1.093649   0.000000
    18  H    1.093494   1.765339   0.000000
    19  C    1.513799   2.139239   2.145811   0.000000
    20  C    2.549075   2.746874   3.417873   1.401267   0.000000
    21  C    2.536411   3.312586   2.627741   1.401356   2.391932
    22  C    3.814250   4.082015   4.540756   2.409489   1.391752
    23  H    2.766215   2.633036   3.787004   2.159165   1.084809
    24  N    3.795994   4.473034   3.962559   2.425950   2.801726
    25  H    2.737232   3.610391   2.389339   2.156765   3.384938
    26  C    4.258668   4.746084   4.710770   2.746084   2.398050
    27  H    4.705852   4.831890   5.515598   3.402783   2.161316
    28  H    5.345853   5.817866   5.767501   3.833839   3.390513
                   21         22         23         24         25
    21  C    0.000000
    22  C    2.721409   0.000000
    23  H    3.384715   2.157942   0.000000
    24  N    1.341774   2.408299   3.886532   0.000000
    25  H    1.088766   3.809844   4.296098   2.067450   0.000000
    26  C    2.289782   1.396067   3.390777   1.340112   3.261085
    27  H    3.805575   1.084909   2.505535   3.377579   4.893608
    28  H    3.262153   2.160223   4.301894   2.067591   4.128570
                   26         27         28
    26  C    0.000000
    27  H    2.157195   0.000000
    28  H    1.088061   2.492418   0.000000
 Framework group  C1[X(C7H11NO7P2)]
 Deg. of freedom    78
                         Standard orientation:                         
 ---------------------------------------------------------------------
 Center     Atomic      Atomic             Coordinates (Angstroms)
 Number     Number       Type             X           Y           Z
 ---------------------------------------------------------------------
      1          6           0       -0.670620   -0.260511   -0.222721
      2          8           0       -0.459220   -0.661611   -1.564661
      3          1           0       -1.187050   -0.317171   -2.106601
      4         15           0       -2.407130   -0.732722    0.300039
      5         15           0       -0.389031    1.579269   -0.024061
      6          8           0       -3.195490   -0.430302   -1.075061
      7          1           0       -3.954310   -1.017282   -1.222631
      8          8           0       -2.425609   -2.351842    0.316809
      9          1           0       -2.461079   -2.706332    1.219289
     10          8           0       -1.628131    2.138749   -0.887751
     11          1           0       -1.588842    3.093659   -1.059181
     12          8           0        0.849409    1.956380   -0.995801
     13          1           0        1.692489    1.975280   -0.515721
     14          8           0       -0.234961    2.043659    1.381679
     15          8           0       -2.898650   -0.090682    1.548169
     16          6           0        0.327320   -1.041081    0.673939
     17          1           0        0.098921   -2.102351    0.541249
     18          1           0        0.121880   -0.785911    1.717209
     19          6           0        1.791200   -0.805090    0.369059
     20          6           0        2.419240   -1.384280   -0.741641
     21          6           0        2.584730   -0.019260    1.215569
     22          6           0        3.773300   -1.146049   -0.957841
     23          1           0        1.850771   -2.009150   -1.422221
     24          7           0        3.889870    0.223061    1.019999
     25          1           0        2.137930    0.439160    2.096269
     26          6           0        4.463550   -0.335859   -0.054431
     27          1           0        4.289110   -1.580589   -1.807631
     28          1           0        5.522410   -0.130979   -0.198361
 ---------------------------------------------------------------------
 Rotational constants (GHZ):           0.6934188           0.2845137           0.2492912
 AO basis set in the form of general basis input (Overlap normalization):
      1 0
 S   6 1.00       0.000000000000
      0.3047524880D+04  0.1834737132D-02
      0.4573695180D+03  0.1403732281D-01
      0.1039486850D+03  0.6884262226D-01
      0.2921015530D+02  0.2321844432D+00
      0.9286662960D+01  0.4679413484D+00
      0.3163926960D+01  0.3623119853D+00
 SP   3 1.00       0.000000000000
      0.7868272350D+01 -0.1193324198D+00  0.6899906659D-01
      0.1881288540D+01 -0.1608541517D+00  0.3164239610D+00
      0.5442492580D+00  0.1143456438D+01  0.7443082909D+00
 SP   1 1.00       0.000000000000
      0.1687144782D+00  0.1000000000D+01  0.1000000000D+01
 D   1 1.00       0.000000000000
      0.8000000000D+00  0.1000000000D+01
 ****
      2 0
 S   6 1.00       0.000000000000
      0.5484671660D+04  0.1831074430D-02
      0.8252349460D+03  0.1395017220D-01
      0.1880469580D+03  0.6844507810D-01
      0.5296450000D+02  0.2327143360D+00
      0.1689757040D+02  0.4701928980D+00
      0.5799635340D+01  0.3585208530D+00
 SP   3 1.00       0.000000000000
      0.1553961625D+02 -0.1107775495D+00  0.7087426823D-01
      0.3599933586D+01 -0.1480262627D+00  0.3397528391D+00
      0.1013761750D+01  0.1130767015D+01  0.7271585773D+00
 SP   1 1.00       0.000000000000
      0.2700058226D+00  0.1000000000D+01  0.1000000000D+01
 D   1 1.00       0.000000000000
      0.8000000000D+00  0.1000000000D+01
 ****
      3 0
 S   3 1.00       0.000000000000
      0.1873113696D+02  0.3349460434D-01
      0.2825394365D+01  0.2347269535D+00
      0.6401216923D+00  0.8137573261D+00
 S   1 1.00       0.000000000000
      0.1612777588D+00  0.1000000000D+01
 P   1 1.00       0.000000000000
      0.1100000000D+01  0.1000000000D+01
 ****
      4 0
 S   6 1.00       0.000000000000
      0.1941330000D+05  0.1851598923D-02
      0.2909420000D+04  0.1420619174D-01
      0.6613640000D+03  0.6999945928D-01
      0.1857590000D+03  0.2400788603D+00
      0.5919430000D+02  0.4847617180D+00
      0.2003100000D+02  0.3351998050D+00
 SP   6 1.00       0.000000000000
      0.3394780000D+03 -0.2782170105D-02  0.4564616191D-02
      0.8101010000D+02 -0.3604990135D-01  0.3369357188D-01
      0.2587800000D+02 -0.1166310044D+00  0.1397548834D+00
      0.9452210000D+01  0.9683280364D-01  0.3393617168D+00
      0.3665660000D+01  0.6144180231D+00  0.4509206237D+00
      0.1467460000D+01  0.4037980152D+00  0.2385858009D+00
 SP   3 1.00       0.000000000000
      0.2156230000D+01 -0.2529241139D+00 -0.1776531273D-01
      0.7489970000D+00  0.3285184468D-01  0.2740581964D+00
      0.2831450000D+00  0.1081254762D+01  0.7854215630D+00
 SP   1 1.00       0.000000000000
      0.9983170000D-01  0.1000000000D+01  0.1000000000D+01
 D   1 1.00       0.000000000000
      0.5500000000D+00  0.1000000000D+01
 ****
      5 0
 S   6 1.00       0.000000000000
      0.1941330000D+05  0.1851598923D-02
      0.2909420000D+04  0.1420619174D-01
      0.6613640000D+03  0.6999945928D-01
      0.1857590000D+03  0.2400788603D+00
      0.5919430000D+02  0.4847617180D+00
      0.2003100000D+02  0.3351998050D+00
 SP   6 1.00       0.000000000000
      0.3394780000D+03 -0.2782170105D-02  0.4564616191D-02
      0.8101010000D+02 -0.3604990135D-01  0.3369357188D-01
      0.2587800000D+02 -0.1166310044D+00  0.1397548834D+00
      0.9452210000D+01  0.9683280364D-01  0.3393617168D+00
      0.3665660000D+01  0.6144180231D+00  0.4509206237D+00
      0.1467460000D+01  0.4037980152D+00  0.2385858009D+00
 SP   3 1.00       0.000000000000
      0.2156230000D+01 -0.2529241139D+00 -0.1776531273D-01
      0.7489970000D+00  0.3285184468D-01  0.2740581964D+00
      0.2831450000D+00  0.1081254762D+01  0.7854215630D+00
 SP   1 1.00       0.000000000000
      0.9983170000D-01  0.1000000000D+01  0.1000000000D+01
 D   1 1.00       0.000000000000
      0.5500000000D+00  0.1000000000D+01
 ****
      6 0
 S   6 1.00       0.000000000000
      0.5484671660D+04  0.1831074430D-02
      0.8252349460D+03  0.1395017220D-01
      0.1880469580D+03  0.6844507810D-01
      0.5296450000D+02  0.2327143360D+00
      0.1689757040D+02  0.4701928980D+00
      0.5799635340D+01  0.3585208530D+00
 SP   3 1.00       0.000000000000
      0.1553961625D+02 -0.1107775495D+00  0.7087426823D-01
      0.3599933586D+01 -0.1480262627D+00  0.3397528391D+00
      0.1013761750D+01  0.1130767015D+01  0.7271585773D+00
 SP   1 1.00       0.000000000000
      0.2700058226D+00  0.1000000000D+01  0.1000000000D+01
 D   1 1.00       0.000000000000
      0.8000000000D+00  0.1000000000D+01
 ****
      7 0
 S   3 1.00       0.000000000000
      0.1873113696D+02  0.3349460434D-01
      0.2825394365D+01  0.2347269535D+00
      0.6401216923D+00  0.8137573261D+00
 S   1 1.00       0.000000000000
      0.1612777588D+00  0.1000000000D+01
 P   1 1.00       0.000000000000
      0.1100000000D+01  0.1000000000D+01
 ****
      8 0
 S   6 1.00       0.000000000000
      0.5484671660D+04  0.1831074430D-02
      0.8252349460D+03  0.1395017220D-01
      0.1880469580D+03  0.6844507810D-01
      0.5296450000D+02  0.2327143360D+00
      0.1689757040D+02  0.4701928980D+00
      0.5799635340D+01  0.3585208530D+00
 SP   3 1.00       0.000000000000
      0.1553961625D+02 -0.1107775495D+00  0.7087426823D-01
      0.3599933586D+01 -0.1480262627D+00  0.3397528391D+00
      0.1013761750D+01  0.1130767015D+01  0.7271585773D+00
 SP   1 1.00       0.000000000000
      0.2700058226D+00  0.1000000000D+01  0.1000000000D+01
 D   1 1.00       0.000000000000
      0.8000000000D+00  0.1000000000D+01
 ****
      9 0
 S   3 1.00       0.000000000000
      0.1873113696D+02  0.3349460434D-01
      0.2825394365D+01  0.2347269535D+00
      0.6401216923D+00  0.8137573261D+00
 S   1 1.00       0.000000000000
      0.1612777588D+00  0.1000000000D+01
 P   1 1.00       0.000000000000
      0.1100000000D+01  0.1000000000D+01
 ****
     10 0
 S   6 1.00       0.000000000000
      0.5484671660D+04  0.1831074430D-02
      0.8252349460D+03  0.1395017220D-01
      0.1880469580D+03  0.6844507810D-01
      0.5296450000D+02  0.2327143360D+00
      0.1689757040D+02  0.4701928980D+00
      0.5799635340D+01  0.3585208530D+00
 SP   3 1.00       0.000000000000
      0.1553961625D+02 -0.1107775495D+00  0.7087426823D-01
      0.3599933586D+01 -0.1480262627D+00  0.3397528391D+00
      0.1013761750D+01  0.1130767015D+01  0.7271585773D+00
 SP   1 1.00       0.000000000000
      0.2700058226D+00  0.1000000000D+01  0.1000000000D+01
 D   1 1.00       0.000000000000
      0.8000000000D+00  0.1000000000D+01
 ****
     11 0
 S   3 1.00       0.000000000000
      0.1873113696D+02  0.3349460434D-01
      0.2825394365D+01  0.2347269535D+00
      0.6401216923D+00  0.8137573261D+00
 S   1 1.00       0.000000000000
      0.1612777588D+00  0.1000000000D+01
 P   1 1.00       0.000000000000
      0.1100000000D+01  0.1000000000D+01
 ****
     12 0
 S   6 1.00       0.000000000000
      0.5484671660D+04  0.1831074430D-02
      0.8252349460D+03  0.1395017220D-01
      0.1880469580D+03  0.6844507810D-01
      0.5296450000D+02  0.2327143360D+00
      0.1689757040D+02  0.4701928980D+00
      0.5799635340D+01  0.3585208530D+00
 SP   3 1.00       0.000000000000
      0.1553961625D+02 -0.1107775495D+00  0.7087426823D-01
      0.3599933586D+01 -0.1480262627D+00  0.3397528391D+00
      0.1013761750D+01  0.1130767015D+01  0.7271585773D+00
 SP   1 1.00       0.000000000000
      0.2700058226D+00  0.1000000000D+01  0.1000000000D+01
 D   1 1.00       0.000000000000
      0.8000000000D+00  0.1000000000D+01
 ****
     13 0
 S   3 1.00       0.000000000000
      0.1873113696D+02  0.3349460434D-01
      0.2825394365D+01  0.2347269535D+00
      0.6401216923D+00  0.8137573261D+00
 S   1 1.00       0.000000000000
      0.1612777588D+00  0.1000000000D+01
 P   1 1.00       0.000000000000
      0.1100000000D+01  0.1000000000D+01
 ****
     14 0
 S   6 1.00       0.000000000000
      0.5484671660D+04  0.1831074430D-02
      0.8252349460D+03  0.1395017220D-01
      0.1880469580D+03  0.6844507810D-01
      0.5296450000D+02  0.2327143360D+00
      0.1689757040D+02  0.4701928980D+00
      0.5799635340D+01  0.3585208530D+00
 SP   3 1.00       0.000000000000
      0.1553961625D+02 -0.1107775495D+00  0.7087426823D-01
      0.3599933586D+01 -0.1480262627D+00  0.3397528391D+00
      0.1013761750D+01  0.1130767015D+01  0.7271585773D+00
 SP   1 1.00       0.000000000000
      0.2700058226D+00  0.1000000000D+01  0.1000000000D+01
 D   1 1.00       0.000000000000
      0.8000000000D+00  0.1000000000D+01
 ****
     15 0
 S   6 1.00       0.000000000000
      0.5484671660D+04  0.1831074430D-02
      0.8252349460D+03  0.1395017220D-01
      0.1880469580D+03  0.6844507810D-01
      0.5296450000D+02  0.2327143360D+00
      0.1689757040D+02  0.4701928980D+00
      0.5799635340D+01  0.3585208530D+00
 SP   3 1.00       0.000000000000
      0.1553961625D+02 -0.1107775495D+00  0.7087426823D-01
      0.3599933586D+01 -0.1480262627D+00  0.3397528391D+00
      0.1013761750D+01  0.1130767015D+01  0.7271585773D+00
 SP   1 1.00       0.000000000000
      0.2700058226D+00  0.1000000000D+01  0.1000000000D+01
 D   1 1.00       0.000000000000
      0.8000000000D+00  0.1000000000D+01
 ****
     16 0
 S   6 1.00       0.000000000000
      0.3047524880D+04  0.1834737132D-02
      0.4573695180D+03  0.1403732281D-01
      0.1039486850D+03  0.6884262226D-01
      0.2921015530D+02  0.2321844432D+00
      0.9286662960D+01  0.4679413484D+00
      0.3163926960D+01  0.3623119853D+00
 SP   3 1.00       0.000000000000
      0.7868272350D+01 -0.1193324198D+00  0.6899906659D-01
      0.1881288540D+01 -0.1608541517D+00  0.3164239610D+00
      0.5442492580D+00  0.1143456438D+01  0.7443082909D+00
 SP   1 1.00       0.000000000000
      0.1687144782D+00  0.1000000000D+01  0.1000000000D+01
 D   1 1.00       0.000000000000
      0.8000000000D+00  0.1000000000D+01
 ****
     17 0
 S   3 1.00       0.000000000000
      0.1873113696D+02  0.3349460434D-01
      0.2825394365D+01  0.2347269535D+00
      0.6401216923D+00  0.8137573261D+00
 S   1 1.00       0.000000000000
      0.1612777588D+00  0.1000000000D+01
 P   1 1.00       0.000000000000
      0.1100000000D+01  0.1000000000D+01
 ****
     18 0
 S   3 1.00       0.000000000000
      0.1873113696D+02  0.3349460434D-01
      0.2825394365D+01  0.2347269535D+00
      0.6401216923D+00  0.8137573261D+00
 S   1 1.00       0.000000000000
      0.1612777588D+00  0.1000000000D+01
 P   1 1.00       0.000000000000
      0.1100000000D+01  0.1000000000D+01
 ****
     19 0
 S   6 1.00       0.000000000000
      0.3047524880D+04  0.1834737132D-02
      0.4573695180D+03  0.1403732281D-01
      0.1039486850D+03  0.6884262226D-01
      0.2921015530D+02  0.2321844432D+00
      0.9286662960D+01  0.4679413484D+00
      0.3163926960D+01  0.3623119853D+00
 SP   3 1.00       0.000000000000
      0.7868272350D+01 -0.1193324198D+00  0.6899906659D-01
      0.1881288540D+01 -0.1608541517D+00  0.3164239610D+00
      0.5442492580D+00  0.1143456438D+01  0.7443082909D+00
 SP   1 1.00       0.000000000000
      0.1687144782D+00  0.1000000000D+01  0.1000000000D+01
 D   1 1.00       0.000000000000
      0.8000000000D+00  0.1000000000D+01
 ****
     20 0
 S   6 1.00       0.000000000000
      0.3047524880D+04  0.1834737132D-02
      0.4573695180D+03  0.1403732281D-01
      0.1039486850D+03  0.6884262226D-01
      0.2921015530D+02  0.2321844432D+00
      0.9286662960D+01  0.4679413484D+00
      0.3163926960D+01  0.3623119853D+00
 SP   3 1.00       0.000000000000
      0.7868272350D+01 -0.1193324198D+00  0.6899906659D-01
      0.1881288540D+01 -0.1608541517D+00  0.3164239610D+00
      0.5442492580D+00  0.1143456438D+01  0.7443082909D+00
 SP   1 1.00       0.000000000000
      0.1687144782D+00  0.1000000000D+01  0.1000000000D+01
 D   1 1.00       0.000000000000
      0.8000000000D+00  0.1000000000D+01
 ****
     21 0
 S   6 1.00       0.000000000000
      0.3047524880D+04  0.1834737132D-02
      0.4573695180D+03  0.1403732281D-01
      0.1039486850D+03  0.6884262226D-01
      0.2921015530D+02  0.2321844432D+00
      0.9286662960D+01  0.4679413484D+00
      0.3163926960D+01  0.3623119853D+00
 SP   3 1.00       0.000000000000
      0.7868272350D+01 -0.1193324198D+00  0.6899906659D-01
      0.1881288540D+01 -0.1608541517D+00  0.3164239610D+00
      0.5442492580D+00  0.1143456438D+01  0.7443082909D+00
 SP   1 1.00       0.000000000000
      0.1687144782D+00  0.1000000000D+01  0.1000000000D+01
 D   1 1.00       0.000000000000
      0.8000000000D+00  0.1000000000D+01
 ****
     22 0
 S   6 1.00       0.000000000000
      0.3047524880D+04  0.1834737132D-02
      0.4573695180D+03  0.1403732281D-01
      0.1039486850D+03  0.6884262226D-01
      0.2921015530D+02  0.2321844432D+00
      0.9286662960D+01  0.4679413484D+00
      0.3163926960D+01  0.3623119853D+00
 SP   3 1.00       0.000000000000
      0.7868272350D+01 -0.1193324198D+00  0.6899906659D-01
      0.1881288540D+01 -0.1608541517D+00  0.3164239610D+00
      0.5442492580D+00  0.1143456438D+01  0.7443082909D+00
 SP   1 1.00       0.000000000000
      0.1687144782D+00  0.1000000000D+01  0.1000000000D+01
 D   1 1.00       0.000000000000
      0.8000000000D+00  0.1000000000D+01
 ****
     23 0
 S   3 1.00       0.000000000000
      0.1873113696D+02  0.3349460434D-01
      0.2825394365D+01  0.2347269535D+00
      0.6401216923D+00  0.8137573261D+00
 S   1 1.00       0.000000000000
      0.1612777588D+00  0.1000000000D+01
 P   1 1.00       0.000000000000
      0.1100000000D+01  0.1000000000D+01
 ****
     24 0
 S   6 1.00       0.000000000000
      0.4173511460D+04  0.1834772160D-02
      0.6274579110D+03  0.1399462700D-01
      0.1429020930D+03  0.6858655181D-01
      0.4023432930D+02  0.2322408730D+00
      0.1282021290D+02  0.4690699481D+00
      0.4390437010D+01  0.3604551991D+00
 SP   3 1.00       0.000000000000
      0.1162636186D+02 -0.1149611817D+00  0.6757974388D-01
      0.2716279807D+01 -0.1691174786D+00  0.3239072959D+00
      0.7722183966D+00  0.1145851947D+01  0.7408951398D+00
 SP   1 1.00       0.000000000000
      0.2120314975D+00  0.1000000000D+01  0.1000000000D+01
 D   1 1.00       0.000000000000
      0.8000000000D+00  0.1000000000D+01
 ****
     25 0
 S   3 1.00       0.000000000000
      0.1873113696D+02  0.3349460434D-01
      0.2825394365D+01  0.2347269535D+00
      0.6401216923D+00  0.8137573261D+00
 S   1 1.00       0.000000000000
      0.1612777588D+00  0.1000000000D+01
 P   1 1.00       0.000000000000
      0.1100000000D+01  0.1000000000D+01
 ****
     26 0
 S   6 1.00       0.000000000000
      0.3047524880D+04  0.1834737132D-02
      0.4573695180D+03  0.1403732281D-01
      0.1039486850D+03  0.6884262226D-01
      0.2921015530D+02  0.2321844432D+00
      0.9286662960D+01  0.4679413484D+00
      0.3163926960D+01  0.3623119853D+00
 SP   3 1.00       0.000000000000
      0.7868272350D+01 -0.1193324198D+00  0.6899906659D-01
      0.1881288540D+01 -0.1608541517D+00  0.3164239610D+00
      0.5442492580D+00  0.1143456438D+01  0.7443082909D+00
 SP   1 1.00       0.000000000000
      0.1687144782D+00  0.1000000000D+01  0.1000000000D+01
 D   1 1.00       0.000000000000
      0.8000000000D+00  0.1000000000D+01
 ****
     27 0
 S   3 1.00       0.000000000000
      0.1873113696D+02  0.3349460434D-01
      0.2825394365D+01  0.2347269535D+00
      0.6401216923D+00  0.8137573261D+00
 S   1 1.00       0.000000000000
      0.1612777588D+00  0.1000000000D+01
 P   1 1.00       0.000000000000
      0.1100000000D+01  0.1000000000D+01
 ****
     28 0
 S   3 1.00       0.000000000000
      0.1873113696D+02  0.3349460434D-01
      0.2825394365D+01  0.2347269535D+00
      0.6401216923D+00  0.8137573261D+00
 S   1 1.00       0.000000000000
      0.1612777588D+00  0.1000000000D+01
 P   1 1.00       0.000000000000
      0.1100000000D+01  0.1000000000D+01
 ****

   318 basis functions,   601 primitive gaussians,   318 cartesian basis functions
    74 alpha electrons       73 beta electrons
       nuclear repulsion energy      1686.2823314353 Hartrees.
 NAtoms=   28 NActive=   28 NUniq=   28 SFac= 1.00D+00 NAtFMM=   60 NAOKFM=F Big=F
 ------------------------------------------------------------------------------
 Polarizable Continuum Model (PCM)
 =================================
 Model                : PCM.
 Atomic radii         : UFF (Universal Force Field).
 Polarization charges : Total charges.
 Charge compensation  : None.
 Solution method      : On-the-fly selection.
 Cavity type          : Scaled VdW (van der Waals Surface) (Alpha=1.100).
 Cavity algorithm     : GePol (No added spheres)
                        Default sphere list used, NSphG=   28.
                        Lebedev-Laikov grids with approx.  5.0 points / Ang**2.
                        Smoothing algorithm: York/Karplus (Gamma=1.0000).
                        Polarization charges: spherical gaussians, with
                                              point-specific exponents (IZeta= 3).
                        Self-potential: point-specific (ISelfS= 7).
                        Self-field    : sphere-specific E.n sum rule (ISelfD= 2).
 Solvent              : Water, Eps=  78.355300 Eps(inf)=   1.777849
 ------------------------------------------------------------------------------
 ExpMin= 9.98D-02 ExpMax= 1.94D+04 ExpMxC= 2.91D+03 IAcc=3 IRadAn=         5 AccDes= 0.00D+00
 Harris functional with IExCor=  402 and IRadAn=       5 diagonalized for initial guess.
 HarFok:  IExCor=  402 AccDes= 0.00D+00 IRadAn=         5 IDoV= 1 UseB2=F ITyADJ=14
 ICtDFT=  3500011 ScaDFX=  1.000000  1.000000  1.000000  1.000000
 FoFCou: FMM=F IPFlag=           0 FMFlag=      100000 FMFlg1=           0
         NFxFlg=           0 DoJE=T BraDBF=F KetDBF=T FulRan=T
         wScrn=  0.000000 ICntrl=       500 IOpCl=  0 I1Cent=   200000004 NGrid=           0
         NMat0=    1 NMatS0=      1 NMatT0=    0 NMatD0=    1 NMtDS0=    0 NMtDT0=    0
 Petite list used in FoFCou.
 Initial guess <Sx>= 0.0000 <Sy>= 0.0000 <Sz>= 0.5000 <S**2>= 0.7500 S= 0.5000
 Inv3:  Mode=1 IEnd=    15377088.
 Iteration    1 A*A^-1 deviation from unit magnitude is 8.99D-15 for   1920.
 Iteration    1 A*A^-1 deviation from orthogonality  is 4.05D-15 for   1061    768.
 Iteration    1 A^-1*A deviation from unit magnitude is 8.88D-15 for   1920.
 Iteration    1 A^-1*A deviation from orthogonality  is 3.44D-15 for   1986     83.
 Error on total polarization charges =  0.00818
 SCF Done:  E(UB3LYP) =  -1537.59630263     A.U. after   20 cycles
            NFock= 20  Conv=0.59D-08     -V/T= 2.0065
 <Sx>= 0.0000 <Sy>= 0.0000 <Sz>= 0.5000 <S**2>= 0.7588 S= 0.5044
 <L.S>= 0.000000000000E+00
 Annihilation of the first spin contaminant:
 S**2 before annihilation     0.7588,   after     0.7500

 **********************************************************************

            Population analysis using the SCF density.

 **********************************************************************

 Orbital symmetries:
 Alpha Orbitals:
       Occupied  (A) (A) (A) (A) (A) (A) (A) (A) (A) (A) (A) (A)
                 (A) (A) (A) (A) (A) (A) (A) (A) (A) (A) (A) (A)
                 (A) (A) (A) (A) (A) (A) (A) (A) (A) (A) (A) (A)
                 (A) (A) (A) (A) (A) (A) (A) (A) (A) (A) (A) (A)
                 (A) (A) (A) (A) (A) (A) (A) (A) (A) (A) (A) (A)
                 (A) (A) (A) (A) (A) (A) (A) (A) (A) (A) (A) (A)
                 (A) (A)
       Virtual   (A) (A) (A) (A) (A) (A) (A) (A) (A) (A) (A) (A)
                 (A) (A) (A) (A) (A) (A) (A) (A) (A) (A) (A) (A)
                 (A) (A) (A) (A) (A) (A) (A) (A) (A) (A) (A) (A)
                 (A) (A) (A) (A) (A) (A) (A) (A) (A) (A) (A) (A)
                 (A) (A) (A) (A) (A) (A) (A) (A) (A) (A) (A) (A)
                 (A) (A) (A) (A) (A) (A) (A) (A) (A) (A) (A) (A)
                 (A) (A) (A) (A) (A) (A) (A) (A) (A) (A) (A) (A)
                 (A) (A) (A) (A) (A) (A) (A) (A) (A) (A) (A) (A)
                 (A) (A) (A) (A) (A) (A) (A) (A) (A) (A) (A) (A)
                 (A) (A) (A) (A) (A) (A) (A) (A) (A) (A) (A) (A)
                 (A) (A) (A) (A) (A) (A) (A) (A) (A) (A) (A) (A)
                 (A) (A) (A) (A) (A) (A) (A) (A) (A) (A) (A) (A)
                 (A) (A) (A) (A) (A) (A) (A) (A) (A) (A) (A) (A)
                 (A) (A) (A) (A) (A) (A) (A) (A) (A) (A) (A) (A)
                 (A) (A) (A) (A) (A) (A) (A) (A) (A) (A) (A) (A)
                 (A) (A) (A) (A) (A) (A) (A) (A) (A) (A) (A) (A)
                 (A) (A) (A) (A) (A) (A) (A) (A) (A) (A) (A) (A)
                 (A) (A) (A) (A) (A) (A) (A) (A) (A) (A) (A) (A)
                 (A) (A) (A) (A) (A) (A) (A) (A) (A) (A) (A) (A)
                 (A) (A) (A) (A) (A) (A) (A) (A) (A) (A) (A) (A)
                 (A) (A) (A) (A)
 Beta  Orbitals:
       Occupied  (A) (A) (A) (A) (A) (A) (A) (A) (A) (A) (A) (A)
                 (A) (A) (A) (A) (A) (A) (A) (A) (A) (A) (A) (A)
                 (A) (A) (A) (A) (A) (A) (A) (A) (A) (A) (A) (A)
                 (A) (A) (A) (A) (A) (A) (A) (A) (A) (A) (A) (A)
                 (A) (A) (A) (A) (A) (A) (A) (A) (A) (A) (A) (A)
                 (A) (A) (A) (A) (A) (A) (A) (A) (A) (A) (A) (A)
                 (A)
       Virtual   (A) (A) (A) (A) (A) (A) (A) (A) (A) (A) (A) (A)
                 (A) (A) (A) (A) (A) (A) (A) (A) (A) (A) (A) (A)
                 (A) (A) (A) (A) (A) (A) (A) (A) (A) (A) (A) (A)
                 (A) (A) (A) (A) (A) (A) (A) (A) (A) (A) (A) (A)
                 (A) (A) (A) (A) (A) (A) (A) (A) (A) (A) (A) (A)
                 (A) (A) (A) (A) (A) (A) (A) (A) (A) (A) (A) (A)
                 (A) (A) (A) (A) (A) (A) (A) (A) (A) (A) (A) (A)
                 (A) (A) (A) (A) (A) (A) (A) (A) (A) (A) (A) (A)
                 (A) (A) (A) (A) (A) (A) (A) (A) (A) (A) (A) (A)
                 (A) (A) (A) (A) (A) (A) (A) (A) (A) (A) (A) (A)
                 (A) (A) (A) (A) (A) (A) (A) (A) (A) (A) (A) (A)
                 (A) (A) (A) (A) (A) (A) (A) (A) (A) (A) (A) (A)
                 (A) (A) (A) (A) (A) (A) (A) (A) (A) (A) (A) (A)
                 (A) (A) (A) (A) (A) (A) (A) (A) (A) (A) (A) (A)
                 (A) (A) (A) (A) (A) (A) (A) (A) (A) (A) (A) (A)
                 (A) (A) (A) (A) (A) (A) (A) (A) (A) (A) (A) (A)
                 (A) (A) (A) (A) (A) (A) (A) (A) (A) (A) (A) (A)
                 (A) (A) (A) (A) (A) (A) (A) (A) (A) (A) (A) (A)
                 (A) (A) (A) (A) (A) (A) (A) (A) (A) (A) (A) (A)
                 (A) (A) (A) (A) (A) (A) (A) (A) (A) (A) (A) (A)
                 (A) (A) (A) (A) (A)
 The electronic state is 2-A.
 Alpha  occ. eigenvalues --  -77.22608 -77.21967 -19.19355 -19.19274 -19.18966
 Alpha  occ. eigenvalues --  -19.17899 -19.16678 -19.12217 -19.11269 -14.24227
 Alpha  occ. eigenvalues --  -10.26531 -10.18642 -10.16185 -10.15272 -10.14561
 Alpha  occ. eigenvalues --  -10.13724 -10.11382  -6.67538  -6.66846  -4.84007
 Alpha  occ. eigenvalues --   -4.83842  -4.83612  -4.83304  -4.83156  -4.82942
 Alpha  occ. eigenvalues --   -1.08876  -1.07849  -1.04035  -1.03539  -1.02896
 Alpha  occ. eigenvalues --   -0.97170  -0.96156  -0.87369  -0.78542  -0.73283
 Alpha  occ. eigenvalues --   -0.70630  -0.65685  -0.64881  -0.59559  -0.57547
 Alpha  occ. eigenvalues --   -0.56960  -0.55285  -0.55139  -0.52214  -0.49422
 Alpha  occ. eigenvalues --   -0.46763  -0.46226  -0.45771  -0.43211  -0.42696
 Alpha  occ. eigenvalues --   -0.42374  -0.41673  -0.40765  -0.40030  -0.38852
 Alpha  occ. eigenvalues --   -0.37761  -0.37246  -0.36809  -0.36503  -0.36148
 Alpha  occ. eigenvalues --   -0.34963  -0.34111  -0.33615  -0.33410  -0.31513
 Alpha  occ. eigenvalues --   -0.31003  -0.30384  -0.29757  -0.29457  -0.26181
 Alpha  occ. eigenvalues --   -0.23820  -0.21327  -0.19805  -0.03286
 Alpha virt. eigenvalues --    0.02816   0.04206   0.04683   0.06195   0.06519
 Alpha virt. eigenvalues --    0.09297   0.11686   0.11946   0.12221   0.13433
 Alpha virt. eigenvalues --    0.14428   0.14753   0.15375   0.15809   0.16569
 Alpha virt. eigenvalues --    0.17419   0.19121   0.20132   0.20749   0.21503
 Alpha virt. eigenvalues --    0.22241   0.24698   0.25962   0.28599   0.29936
 Alpha virt. eigenvalues --    0.33316   0.34392   0.35962   0.36628   0.38516
 Alpha virt. eigenvalues --    0.39067   0.40099   0.40212   0.41738   0.43939
 Alpha virt. eigenvalues --    0.46834   0.47632   0.50234   0.50846   0.54476
 Alpha virt. eigenvalues --    0.55461   0.57596   0.58835   0.60403   0.61788
 Alpha virt. eigenvalues --    0.62252   0.64080   0.64476   0.65296   0.67587
 Alpha virt. eigenvalues --    0.69381   0.69675   0.70151   0.71964   0.74216
 Alpha virt. eigenvalues --    0.75036   0.75258   0.76230   0.77196   0.77659
 Alpha virt. eigenvalues --    0.79121   0.80916   0.81762   0.83413   0.85190
 Alpha virt. eigenvalues --    0.85605   0.86307   0.86754   0.87561   0.88024
 Alpha virt. eigenvalues --    0.89109   0.89816   0.89995   0.90865   0.91748
 Alpha virt. eigenvalues --    0.92851   0.93359   0.93952   0.95534   0.97823
 Alpha virt. eigenvalues --    0.98257   0.98677   0.99612   1.00498   1.01266
 Alpha virt. eigenvalues --    1.01942   1.03722   1.03946   1.05934   1.07510
 Alpha virt. eigenvalues --    1.08316   1.09027   1.10080   1.11937   1.13733
 Alpha virt. eigenvalues --    1.14153   1.15448   1.17607   1.19200   1.20826
 Alpha virt. eigenvalues --    1.21072   1.22129   1.22529   1.25300   1.27454
 Alpha virt. eigenvalues --    1.30523   1.31394   1.33377   1.34517   1.39254
 Alpha virt. eigenvalues --    1.41022   1.41884   1.43141   1.46111   1.46648
 Alpha virt. eigenvalues --    1.47767   1.48443   1.49991   1.51447   1.53236
 Alpha virt. eigenvalues --    1.55144   1.55887   1.57660   1.58489   1.59696
 Alpha virt. eigenvalues --    1.61551   1.62870   1.64157   1.68964   1.69887
 Alpha virt. eigenvalues --    1.70812   1.71727   1.76638   1.77714   1.78857
 Alpha virt. eigenvalues --    1.80320   1.81297   1.83364   1.83546   1.84560
 Alpha virt. eigenvalues --    1.85390   1.86057   1.87183   1.87653   1.88268
 Alpha virt. eigenvalues --    1.89861   1.93617   1.93892   1.95206   1.95754
 Alpha virt. eigenvalues --    1.97821   1.98591   2.02605   2.03274   2.05517
 Alpha virt. eigenvalues --    2.06065   2.08609   2.11336   2.12266   2.14183
 Alpha virt. eigenvalues --    2.16210   2.17419   2.18806   2.19647   2.22069
 Alpha virt. eigenvalues --    2.25501   2.27522   2.29869   2.31253   2.32815
 Alpha virt. eigenvalues --    2.33621   2.34404   2.36715   2.37570   2.39251
 Alpha virt. eigenvalues --    2.40357   2.41283   2.42846   2.43913   2.45253
 Alpha virt. eigenvalues --    2.47626   2.48481   2.48876   2.50552   2.53242
 Alpha virt. eigenvalues --    2.56716   2.57201   2.59132   2.60753   2.60816
 Alpha virt. eigenvalues --    2.61337   2.61945   2.62431   2.63605   2.65485
 Alpha virt. eigenvalues --    2.67025   2.68443   2.68977   2.70691   2.72462
 Alpha virt. eigenvalues --    2.73713   2.74178   2.74897   2.76540   2.77307
 Alpha virt. eigenvalues --    2.81673   2.83383   2.84637   2.87945   2.90793
 Alpha virt. eigenvalues --    2.94178   3.00782   3.05585   3.11610   3.24254
 Alpha virt. eigenvalues --    3.28471   3.31369   3.34029   3.34292   3.35519
 Alpha virt. eigenvalues --    3.36274   3.42355   3.44955   3.46052   3.48774
 Alpha virt. eigenvalues --    3.50382   3.52499   3.56440   3.85592   3.87189
 Alpha virt. eigenvalues --    3.90242   4.00251   4.04304   4.06062   4.16989
 Alpha virt. eigenvalues --    4.19636   4.26509   4.28598   4.34686   4.37232
 Alpha virt. eigenvalues --    4.43435   4.53446   4.67402   4.82149
  Beta  occ. eigenvalues --  -77.22604 -77.21967 -19.19350 -19.19268 -19.18966
  Beta  occ. eigenvalues --  -19.17878 -19.16675 -19.12214 -19.11254 -14.23518
  Beta  occ. eigenvalues --  -10.26503 -10.18648 -10.16148 -10.15067 -10.14532
  Beta  occ. eigenvalues --  -10.13776 -10.10746  -6.67532  -6.66846  -4.84004
  Beta  occ. eigenvalues --   -4.83839  -4.83605  -4.83303  -4.83156  -4.82942
  Beta  occ. eigenvalues --   -1.08862  -1.07832  -1.04025  -1.03528  -1.02865
  Beta  occ. eigenvalues --   -0.97161  -0.96126  -0.86370  -0.78297  -0.72516
  Beta  occ. eigenvalues --   -0.70265  -0.65473  -0.64864  -0.59403  -0.57192
  Beta  occ. eigenvalues --   -0.56640  -0.55232  -0.54714  -0.52171  -0.49324
  Beta  occ. eigenvalues --   -0.46757  -0.45964  -0.45691  -0.43130  -0.42480
  Beta  occ. eigenvalues --   -0.42256  -0.41607  -0.40611  -0.39937  -0.38814
  Beta  occ. eigenvalues --   -0.37727  -0.37202  -0.36687  -0.36480  -0.36080
  Beta  occ. eigenvalues --   -0.34455  -0.33947  -0.33106  -0.32216  -0.31355
  Beta  occ. eigenvalues --   -0.30888  -0.30310  -0.29673  -0.29387  -0.26132
  Beta  occ. eigenvalues --   -0.20717  -0.19796  -0.18997
  Beta virt. eigenvalues --    0.02983   0.04149   0.04732   0.05354   0.06267
  Beta virt. eigenvalues --    0.06624   0.09446   0.11842   0.12021   0.12304
  Beta virt. eigenvalues --    0.13616   0.14482   0.14816   0.15434   0.15928
  Beta virt. eigenvalues --    0.16741   0.18460   0.19424   0.20224   0.21380
  Beta virt. eigenvalues --    0.22076   0.22698   0.25105   0.26049   0.28878
  Beta virt. eigenvalues --    0.30441   0.33334   0.34436   0.36145   0.36890
  Beta virt. eigenvalues --    0.38579   0.39120   0.40199   0.40258   0.41965
  Beta virt. eigenvalues --    0.44113   0.46933   0.47744   0.50567   0.50971
  Beta virt. eigenvalues --    0.54655   0.55722   0.58030   0.59088   0.60763
  Beta virt. eigenvalues --    0.62013   0.63057   0.64717   0.65493   0.65626
  Beta virt. eigenvalues --    0.67872   0.69856   0.70316   0.70588   0.72268
  Beta virt. eigenvalues --    0.74274   0.75309   0.75370   0.76318   0.77280
  Beta virt. eigenvalues --    0.77997   0.79258   0.81108   0.81847   0.83611
  Beta virt. eigenvalues --    0.85333   0.85856   0.86609   0.86957   0.87916
  Beta virt. eigenvalues --    0.88207   0.89331   0.89923   0.90295   0.91038
  Beta virt. eigenvalues --    0.91966   0.93399   0.93778   0.94057   0.95766
  Beta virt. eigenvalues --    0.97946   0.98339   0.98886   0.99801   1.00560
  Beta virt. eigenvalues --    1.01382   1.02380   1.03760   1.04032   1.06008
  Beta virt. eigenvalues --    1.07597   1.08474   1.09104   1.10143   1.12045
  Beta virt. eigenvalues --    1.13890   1.14252   1.15519   1.17701   1.19338
  Beta virt. eigenvalues --    1.20869   1.21112   1.22254   1.22775   1.25436
  Beta virt. eigenvalues --    1.27606   1.30872   1.31913   1.33770   1.34658
  Beta virt. eigenvalues --    1.39710   1.41394   1.42421   1.43247   1.46510
  Beta virt. eigenvalues --    1.47381   1.47878   1.48724   1.50750   1.51593
  Beta virt. eigenvalues --    1.54316   1.55287   1.55986   1.57728   1.58559
  Beta virt. eigenvalues --    1.59760   1.61668   1.62923   1.64355   1.69028
  Beta virt. eigenvalues --    1.69988   1.70844   1.71772   1.76873   1.77756
  Beta virt. eigenvalues --    1.79300   1.80477   1.81506   1.83425   1.83679
  Beta virt. eigenvalues --    1.84687   1.85483   1.86215   1.87458   1.87807
  Beta virt. eigenvalues --    1.88398   1.89937   1.93810   1.94262   1.95244
  Beta virt. eigenvalues --    1.95908   1.97907   1.99031   2.03217   2.03824
  Beta virt. eigenvalues --    2.05631   2.06421   2.08742   2.11431   2.12440
  Beta virt. eigenvalues --    2.14374   2.16983   2.18148   2.19175   2.19817
  Beta virt. eigenvalues --    2.22130   2.25609   2.27713   2.29966   2.31467
  Beta virt. eigenvalues --    2.33024   2.33683   2.34683   2.36801   2.38392
  Beta virt. eigenvalues --    2.40234   2.40659   2.41443   2.43226   2.44358
  Beta virt. eigenvalues --    2.45323   2.47996   2.48608   2.48939   2.50689
  Beta virt. eigenvalues --    2.53884   2.57106   2.57864   2.59580   2.60768
  Beta virt. eigenvalues --    2.60842   2.61356   2.61984   2.62470   2.63650
  Beta virt. eigenvalues --    2.65521   2.67124   2.68637   2.69160   2.70726
  Beta virt. eigenvalues --    2.72605   2.73829   2.75180   2.75435   2.76950
  Beta virt. eigenvalues --    2.77828   2.81715   2.83405   2.84938   2.88035
  Beta virt. eigenvalues --    2.90925   2.94306   3.00836   3.05850   3.11810
  Beta virt. eigenvalues --    3.24658   3.28534   3.31469   3.34042   3.34397
  Beta virt. eigenvalues --    3.35563   3.36292   3.42410   3.45174   3.46066
  Beta virt. eigenvalues --    3.48811   3.50424   3.52535   3.56457   3.85896
  Beta virt. eigenvalues --    3.87201   3.90272   4.00288   4.04341   4.06091
  Beta virt. eigenvalues --    4.17575   4.19737   4.27322   4.29205   4.34953
  Beta virt. eigenvalues --    4.37431   4.43733   4.53645   4.67484   4.82672
     Alpha Molecular Orbital Coefficients:
                           1         2         3         4         5
                           O         O         O         O         O
     Eigenvalues --   -77.22608 -77.21967 -19.19355 -19.19274 -19.18966
   1 1   C  1S         -0.00004  -0.00003  -0.00002  -0.00003  -0.00005
   2        2S         -0.00003   0.00001  -0.00014  -0.00018  -0.00023
   3        2PX        -0.00003   0.00001  -0.00002  -0.00002  -0.00004
   4        2PY        -0.00003   0.00004   0.00003  -0.00002   0.00005
   5        2PZ        -0.00000  -0.00000  -0.00006   0.00007  -0.00001
   6        3S          0.00091   0.00058   0.00123   0.00110   0.00177
   7        3PX        -0.00037   0.00010  -0.00042  -0.00052   0.00019
   8        3PY        -0.00016   0.00050  -0.00069  -0.00003   0.00043
   9        3PZ         0.00012  -0.00001   0.00032  -0.00013   0.00069
  10        4XX        -0.00013  -0.00008   0.00003   0.00004  -0.00002
  11        4YY        -0.00008  -0.00014  -0.00002  -0.00000  -0.00000
  12        4ZZ        -0.00008  -0.00006   0.00000  -0.00003  -0.00009
  13        4XY        -0.00002  -0.00001  -0.00002   0.00004  -0.00001
  14        4XZ         0.00002  -0.00001  -0.00002  -0.00001   0.00002
  15        4YZ         0.00002  -0.00001  -0.00001  -0.00001  -0.00001
  16 2   O  1S          0.00000   0.00000   0.00000  -0.00001  -0.00001
  17        2S         -0.00000   0.00001  -0.00007  -0.00018  -0.00026
  18        2PX         0.00001   0.00001  -0.00002   0.00006   0.00001
  19        2PY        -0.00001  -0.00001   0.00003   0.00004  -0.00004
  20        2PZ        -0.00001  -0.00001   0.00003  -0.00004  -0.00002
  21        3S         -0.00013  -0.00015   0.00041   0.00056   0.00115
  22        3PX         0.00004  -0.00008  -0.00015  -0.00020  -0.00013
  23        3PY         0.00004  -0.00009  -0.00003  -0.00018   0.00028
  24        3PZ        -0.00011  -0.00007  -0.00021   0.00020   0.00018
  25        4XX         0.00003  -0.00002   0.00001  -0.00011  -0.00019
  26        4YY        -0.00003   0.00001  -0.00003  -0.00016  -0.00015
  27        4ZZ        -0.00001   0.00000  -0.00008  -0.00013  -0.00017
  28        4XY         0.00000  -0.00001   0.00001   0.00004  -0.00002
  29        4XZ         0.00001  -0.00001   0.00002  -0.00003  -0.00001
  30        4YZ         0.00001  -0.00001   0.00000  -0.00002   0.00002
  31 3   H  1S         -0.00002  -0.00001   0.00003  -0.00007  -0.00004
  32        2S         -0.00018  -0.00014  -0.00046   0.00030   0.00007
  33        3PX         0.00002  -0.00001   0.00003   0.00003  -0.00002
  34        3PY         0.00000  -0.00003   0.00004  -0.00001   0.00001
  35        3PZ        -0.00004  -0.00003  -0.00007   0.00002   0.00001
  36 4   P  1S          0.99625   0.00027   0.00001   0.00001  -0.00000
  37        2S          0.01417  -0.00001  -0.00001  -0.00000   0.00001
  38        2PX         0.00001   0.00001   0.00002  -0.00001  -0.00000
  39        2PY        -0.00002   0.00000  -0.00002   0.00006  -0.00002
  40        2PZ        -0.00003   0.00000   0.00006   0.00001   0.00002
  41        3S         -0.02724   0.00005   0.00028   0.00034  -0.00004
  42        3PX        -0.00014  -0.00011   0.00007   0.00011   0.00002
  43        3PY        -0.00001  -0.00003   0.00011  -0.00013   0.00008
  44        3PZ         0.00005  -0.00000  -0.00019  -0.00010  -0.00020
  45        4S          0.00294   0.00017  -0.00334  -0.00326  -0.00035
  46        4PX         0.00015   0.00006  -0.00041  -0.00047   0.00005
  47        4PY         0.00014  -0.00010  -0.00122   0.00182  -0.00032
  48        4PZ        -0.00001  -0.00010   0.00167   0.00174   0.00042
  49        5XX         0.00941  -0.00006   0.00000  -0.00002  -0.00002
  50        5YY         0.00947  -0.00005   0.00000   0.00028   0.00010
  51        5ZZ         0.00947  -0.00001   0.00017  -0.00013   0.00001
  52        5XY        -0.00003  -0.00005   0.00001   0.00000   0.00002
  53        5XZ         0.00002   0.00002   0.00022  -0.00003  -0.00005
  54        5YZ         0.00002   0.00002  -0.00011   0.00001  -0.00007
  55 5   P  1S         -0.00027   0.99625  -0.00000   0.00000   0.00001
  56        2S         -0.00001   0.01417  -0.00007   0.00003  -0.00003
  57        2PX        -0.00001  -0.00000   0.00000  -0.00000   0.00005
  58        2PY        -0.00001  -0.00001  -0.00000   0.00000  -0.00001
  59        2PZ        -0.00000  -0.00003   0.00000  -0.00000   0.00004
  60        3S          0.00012  -0.02726  -0.00024   0.00015   0.00022
  61        3PX         0.00005  -0.00001   0.00003   0.00000  -0.00013
  62        3PY         0.00009   0.00016   0.00007  -0.00004  -0.00009
  63        3PZ         0.00004   0.00003   0.00002   0.00003  -0.00014
  64        4S         -0.00015   0.00304   0.00166  -0.00071  -0.00292
  65        4PX         0.00009   0.00009  -0.00060   0.00051   0.00151
  66        4PY         0.00003  -0.00024  -0.00057   0.00021   0.00072
  67        4PZ        -0.00012   0.00015  -0.00009  -0.00004   0.00131
  68        5XX        -0.00005   0.00947  -0.00004   0.00000   0.00014
  69        5YY        -0.00009   0.00941  -0.00007   0.00000  -0.00003
  70        5ZZ        -0.00004   0.00951  -0.00003  -0.00001  -0.00001
  71        5XY        -0.00004  -0.00001   0.00003  -0.00001  -0.00009
  72        5XZ        -0.00000  -0.00001   0.00001  -0.00002   0.00017
  73        5YZ         0.00001   0.00000   0.00002  -0.00001  -0.00008
  74 6   O  1S         -0.00001   0.00002   0.99268  -0.00103   0.00051
  75        2S         -0.00005   0.00006   0.02578  -0.00026  -0.00009
  76        2PX        -0.00002   0.00002  -0.00040  -0.00004   0.00000
  77        2PY         0.00004   0.00001  -0.00070   0.00001   0.00003
  78        2PZ        -0.00008   0.00001   0.00045   0.00002  -0.00001
  79        3S          0.00073  -0.00025   0.01276   0.00147   0.00050
  80        3PX         0.00001  -0.00014   0.00058   0.00044   0.00001
  81        3PY        -0.00020  -0.00004   0.00018  -0.00015  -0.00007
  82        3PZ         0.00029  -0.00008   0.00031   0.00017   0.00006
  83        4XX        -0.00006   0.00006  -0.00826  -0.00011   0.00002
  84        4YY        -0.00001   0.00006  -0.00826  -0.00021  -0.00000
  85        4ZZ        -0.00021   0.00005  -0.00828  -0.00013  -0.00004
  86        4XY         0.00007   0.00001  -0.00002  -0.00003   0.00005
  87        4XZ        -0.00012  -0.00001  -0.00003   0.00000  -0.00001
  88        4YZ         0.00005   0.00001   0.00003   0.00003   0.00001
  89 7   H  1S         -0.00010  -0.00004   0.00043   0.00003  -0.00011
  90        2S         -0.00021  -0.00005  -0.00092   0.00038   0.00002
  91        3PX        -0.00001  -0.00002  -0.00005   0.00003  -0.00004
  92        3PY        -0.00000  -0.00002  -0.00000  -0.00000  -0.00002
  93        3PZ        -0.00000  -0.00000  -0.00004   0.00004  -0.00001
  94 8   O  1S         -0.00001   0.00000   0.00096   0.99268  -0.00013
  95        2S         -0.00006   0.00001  -0.00003   0.02572  -0.00001
  96        2PX         0.00001  -0.00000  -0.00002  -0.00004  -0.00001
  97        2PY        -0.00008  -0.00000   0.00003   0.00033   0.00000
  98        2PZ        -0.00003  -0.00000   0.00002   0.00088   0.00001
  99        3S          0.00081  -0.00010   0.00050   0.01298   0.00003
 100        3PX        -0.00006   0.00001   0.00009   0.00013   0.00003
 101        3PY         0.00030  -0.00001   0.00005   0.00059  -0.00001
 102        3PZ         0.00021   0.00002  -0.00016  -0.00053  -0.00006
 103        4XX        -0.00004   0.00001  -0.00006  -0.00825  -0.00000
 104        4YY        -0.00028   0.00001  -0.00008  -0.00831  -0.00002
 105        4ZZ         0.00004   0.00000  -0.00011  -0.00829  -0.00002
 106        4XY        -0.00001   0.00000   0.00004   0.00001   0.00001
 107        4XZ        -0.00000   0.00000  -0.00004  -0.00000  -0.00000
 108        4YZ        -0.00002   0.00000   0.00003  -0.00002  -0.00001
 109 9   H  1S         -0.00012  -0.00000   0.00008   0.00044   0.00003
 110        2S         -0.00022  -0.00001  -0.00029  -0.00089  -0.00011
 111        3PX         0.00001  -0.00000   0.00001  -0.00001  -0.00000
 112        3PY        -0.00001  -0.00000  -0.00002  -0.00007  -0.00001
 113        3PZ         0.00002  -0.00000  -0.00003   0.00003  -0.00000
 114 10  O  1S          0.00001  -0.00001  -0.00050   0.00011   0.99268
 115        2S          0.00004  -0.00005   0.00007  -0.00010   0.02576
 116        2PX        -0.00000  -0.00008   0.00000  -0.00000   0.00058
 117        2PY        -0.00001  -0.00000   0.00000   0.00000   0.00072
 118        2PZ        -0.00001  -0.00005  -0.00001  -0.00001   0.00020
 119        3S         -0.00014   0.00078  -0.00056   0.00052   0.01282
 120        3PX         0.00003   0.00031  -0.00012   0.00006   0.00026
 121        3PY         0.00008   0.00011   0.00002  -0.00008  -0.00073
 122        3PZ         0.00001   0.00018  -0.00003   0.00009   0.00024
 123        4XX         0.00003  -0.00018   0.00009  -0.00007  -0.00829
 124        4YY         0.00000   0.00001   0.00012  -0.00006  -0.00832
 125        4ZZ         0.00003  -0.00010   0.00007  -0.00006  -0.00828
 126        4XY        -0.00001   0.00009   0.00002  -0.00000  -0.00001
 127        4XZ         0.00001  -0.00012  -0.00000   0.00001  -0.00003
 128        4YZ         0.00001   0.00005  -0.00002   0.00000   0.00001
 129 11  H  1S         -0.00000  -0.00011   0.00000  -0.00001   0.00048
 130        2S         -0.00000  -0.00018  -0.00005   0.00005  -0.00085
 131        3PX        -0.00000  -0.00000   0.00000  -0.00000  -0.00003
 132        3PY        -0.00001   0.00001   0.00003  -0.00001   0.00002
 133        3PZ        -0.00000  -0.00001  -0.00001  -0.00000  -0.00003
 134 12  O  1S          0.00000  -0.00000  -0.00001  -0.00000   0.00011
 135        2S          0.00000  -0.00002   0.00004   0.00000  -0.00013
 136        2PX        -0.00000   0.00005  -0.00001   0.00000  -0.00001
 137        2PY         0.00000   0.00001  -0.00002   0.00001   0.00003
 138        2PZ        -0.00000  -0.00007  -0.00001   0.00001   0.00004
 139        3S         -0.00003   0.00063  -0.00022  -0.00002   0.00088
 140        3PX         0.00001  -0.00013   0.00009  -0.00002  -0.00024
 141        3PY        -0.00001  -0.00001   0.00009  -0.00004  -0.00019
 142        3PZ         0.00001   0.00029   0.00002  -0.00003  -0.00015
 143        4XX         0.00001  -0.00010   0.00002   0.00001  -0.00021
 144        4YY         0.00000  -0.00002   0.00003   0.00000  -0.00007
 145        4ZZ         0.00000  -0.00007   0.00003  -0.00001  -0.00013
 146        4XY         0.00000  -0.00006  -0.00000   0.00000   0.00005
 147        4XZ        -0.00000   0.00017  -0.00000   0.00000  -0.00004
 148        4YZ        -0.00000   0.00005   0.00000  -0.00000   0.00000
 149 13  H  1S         -0.00000  -0.00009  -0.00002   0.00001   0.00011
 150        2S         -0.00002  -0.00021   0.00005  -0.00008  -0.00020
 151        3PX         0.00000   0.00001   0.00000   0.00001  -0.00003
 152        3PY         0.00000  -0.00001  -0.00000   0.00001   0.00000
 153        3PZ         0.00000   0.00000   0.00000  -0.00000  -0.00005
 154 14  O  1S          0.00001   0.00002   0.00002  -0.00001  -0.00002
 155        2S          0.00001   0.00000   0.00011  -0.00004   0.00004
 156        2PX        -0.00001   0.00002  -0.00003   0.00002   0.00006
 157        2PY        -0.00002   0.00004  -0.00002  -0.00000   0.00002
 158        2PZ        -0.00000   0.00018  -0.00001   0.00001  -0.00003
 159        3S         -0.00003   0.00024  -0.00057   0.00020  -0.00019
 160        3PX         0.00003  -0.00004   0.00015  -0.00010  -0.00034
 161        3PY         0.00005  -0.00004   0.00013  -0.00002  -0.00012
 162        3PZ         0.00003  -0.00036   0.00012  -0.00005  -0.00011
 163        4XX         0.00002   0.00010   0.00008  -0.00002   0.00006
 164        4YY         0.00002   0.00007   0.00009  -0.00002   0.00006
 165        4ZZ         0.00001  -0.00013   0.00008  -0.00002   0.00009
 166        4XY        -0.00001  -0.00001  -0.00000  -0.00001   0.00004
 167        4XZ        -0.00000  -0.00003  -0.00002   0.00001   0.00004
 168        4YZ        -0.00001  -0.00010  -0.00001   0.00000   0.00002
 169 15  O  1S          0.00002   0.00001  -0.00004  -0.00001  -0.00001
 170        2S         -0.00003   0.00005  -0.00008   0.00013  -0.00011
 171        2PX        -0.00005   0.00002   0.00000   0.00001  -0.00001
 172        2PY         0.00009   0.00001  -0.00006   0.00002  -0.00005
 173        2PZ         0.00016  -0.00000   0.00002  -0.00001   0.00005
 174        3S          0.00040  -0.00018   0.00050  -0.00069   0.00047
 175        3PX         0.00008  -0.00008   0.00004   0.00000   0.00008
 176        3PY        -0.00021  -0.00003   0.00022  -0.00022   0.00017
 177        3PZ        -0.00032   0.00005  -0.00041  -0.00008  -0.00025
 178        4XX         0.00004   0.00003  -0.00005   0.00013  -0.00011
 179        4YY         0.00004   0.00004  -0.00004   0.00011  -0.00010
 180        4ZZ        -0.00010   0.00003   0.00004   0.00013  -0.00006
 181        4XY         0.00004  -0.00002   0.00002  -0.00001   0.00001
 182        4XZ         0.00009   0.00001  -0.00002  -0.00000  -0.00003
 183        4YZ        -0.00010  -0.00000   0.00000   0.00004  -0.00000
 184 16  C  1S         -0.00001  -0.00002   0.00002  -0.00001   0.00002
 185        2S         -0.00001  -0.00005   0.00008  -0.00007   0.00011
 186        2PX         0.00004   0.00001   0.00001  -0.00002  -0.00000
 187        2PY        -0.00001  -0.00003   0.00001  -0.00001   0.00000
 188        2PZ         0.00000   0.00002   0.00003  -0.00003   0.00002
 189        3S         -0.00025   0.00036  -0.00061   0.00038  -0.00074
 190        3PX        -0.00011   0.00017   0.00028  -0.00009   0.00037
 191        3PY        -0.00011  -0.00018  -0.00023   0.00003  -0.00045
 192        3PZ         0.00024  -0.00017   0.00009   0.00015   0.00001
 193        4XX        -0.00004  -0.00003  -0.00000   0.00003   0.00002
 194        4YY        -0.00002  -0.00005   0.00003   0.00001   0.00002
 195        4ZZ        -0.00002  -0.00004   0.00001  -0.00000   0.00003
 196        4XY         0.00001   0.00000   0.00002   0.00002   0.00003
 197        4XZ        -0.00001  -0.00001  -0.00002   0.00000  -0.00001
 198        4YZ        -0.00000   0.00001  -0.00000   0.00000   0.00002
 199 17  H  1S          0.00001  -0.00003   0.00000   0.00005   0.00000
 200        2S         -0.00021  -0.00008  -0.00001  -0.00007  -0.00006
 201        3PX         0.00004  -0.00001  -0.00001  -0.00001  -0.00002
 202        3PY        -0.00002   0.00001  -0.00000  -0.00002   0.00000
 203        3PZ        -0.00000   0.00001   0.00000  -0.00002  -0.00001
 204 18  H  1S         -0.00000   0.00002   0.00006  -0.00005   0.00008
 205        2S         -0.00025  -0.00011  -0.00004  -0.00007   0.00006
 206        3PX         0.00004   0.00000  -0.00001  -0.00001  -0.00001
 207        3PY         0.00001  -0.00003   0.00000  -0.00000   0.00001
 208        3PZ         0.00002   0.00002   0.00000  -0.00000   0.00000
 209 19  C  1S         -0.00001   0.00001   0.00000  -0.00000   0.00000
 210        2S         -0.00002   0.00008   0.00001  -0.00000   0.00001
 211        2PX         0.00003   0.00000   0.00000   0.00001  -0.00001
 212        2PY         0.00000  -0.00003   0.00000   0.00000  -0.00001
 213        2PZ         0.00000  -0.00003   0.00000   0.00001   0.00000
 214        3S         -0.00003  -0.00039  -0.00013   0.00003  -0.00010
 215        3PX        -0.00049   0.00029  -0.00010  -0.00003   0.00003
 216        3PY        -0.00012   0.00038   0.00006  -0.00006   0.00033
 217        3PZ        -0.00010   0.00053  -0.00000  -0.00020   0.00020
 218        4XX         0.00000   0.00000   0.00001  -0.00001   0.00001
 219        4YY        -0.00002   0.00001   0.00000  -0.00001   0.00001
 220        4ZZ        -0.00002   0.00001   0.00001  -0.00001   0.00001
 221        4XY        -0.00000   0.00004  -0.00001  -0.00001  -0.00001
 222        4XZ        -0.00000   0.00001   0.00000   0.00000   0.00001
 223        4YZ        -0.00000   0.00000   0.00000  -0.00000   0.00001
 224 20  C  1S         -0.00000   0.00000  -0.00000   0.00000  -0.00001
 225        2S         -0.00001  -0.00002  -0.00001   0.00001  -0.00002
 226        2PX         0.00000  -0.00002   0.00000   0.00001   0.00000
 227        2PY         0.00000   0.00002  -0.00000   0.00000  -0.00001
 228        2PZ        -0.00000   0.00001  -0.00000  -0.00000   0.00000
 229        3S          0.00007   0.00036   0.00010  -0.00020   0.00030
 230        3PX         0.00010  -0.00024   0.00001  -0.00000  -0.00010
 231        3PY         0.00006   0.00003   0.00003  -0.00005   0.00007
 232        3PZ         0.00010   0.00021   0.00006  -0.00003   0.00016
 233        4XX        -0.00001   0.00003  -0.00000  -0.00001  -0.00000
 234        4YY        -0.00000   0.00001  -0.00001  -0.00000  -0.00002
 235        4ZZ         0.00001   0.00002   0.00000   0.00001  -0.00000
 236        4XY        -0.00000  -0.00000   0.00000  -0.00000   0.00000
 237        4XZ         0.00000  -0.00001   0.00000   0.00000  -0.00000
 238        4YZ         0.00001   0.00000   0.00000  -0.00000   0.00000
 239 21  C  1S         -0.00000   0.00001   0.00000  -0.00000   0.00001
 240        2S         -0.00002   0.00005   0.00000  -0.00001   0.00003
 241        2PX        -0.00000  -0.00000  -0.00000  -0.00001  -0.00001
 242        2PY        -0.00000   0.00002   0.00000  -0.00000   0.00002
 243        2PZ        -0.00000   0.00000  -0.00001  -0.00000  -0.00000
 244        3S          0.00024  -0.00049   0.00001   0.00011  -0.00033
 245        3PX        -0.00005   0.00023   0.00002  -0.00003   0.00012
 246        3PY        -0.00016   0.00011  -0.00004  -0.00007  -0.00003
 247        3PZ        -0.00020   0.00019  -0.00000  -0.00003   0.00013
 248        4XX        -0.00001  -0.00000   0.00000   0.00001   0.00001
 249        4YY         0.00000   0.00001   0.00001   0.00000   0.00002
 250        4ZZ        -0.00000   0.00001   0.00000  -0.00000   0.00001
 251        4XY         0.00000  -0.00000  -0.00000   0.00000  -0.00000
 252        4XZ         0.00001  -0.00001  -0.00000   0.00000  -0.00001
 253        4YZ         0.00001  -0.00001   0.00000   0.00000  -0.00000
 254 22  C  1S         -0.00000   0.00000   0.00000  -0.00000   0.00000
 255        2S         -0.00001   0.00000   0.00000  -0.00001   0.00001
 256        2PX         0.00000   0.00001   0.00000  -0.00000   0.00000
 257        2PY        -0.00000  -0.00000   0.00000  -0.00000   0.00000
 258        2PZ        -0.00000   0.00000  -0.00000  -0.00000   0.00000
 259        3S         -0.00004   0.00004  -0.00004   0.00008  -0.00004
 260        3PX         0.00001  -0.00008   0.00000  -0.00003  -0.00000
 261        3PY         0.00001  -0.00005  -0.00002   0.00002  -0.00006
 262        3PZ        -0.00001  -0.00009  -0.00002   0.00003  -0.00009
 263        4XX         0.00000  -0.00001   0.00000   0.00000  -0.00000
 264        4YY        -0.00000  -0.00000  -0.00000  -0.00000   0.00000
 265        4ZZ        -0.00000  -0.00000   0.00000  -0.00000  -0.00000
 266        4XY         0.00000  -0.00000   0.00000   0.00000   0.00000
 267        4XZ        -0.00000   0.00000   0.00000  -0.00000   0.00000
 268        4YZ         0.00000   0.00000  -0.00000   0.00000  -0.00000
 269 23  H  1S          0.00000  -0.00001   0.00000  -0.00000  -0.00001
 270        2S          0.00008  -0.00001   0.00001   0.00002   0.00003
 271        3PX         0.00000   0.00000   0.00000   0.00000   0.00001
 272        3PY         0.00000   0.00000   0.00000   0.00000   0.00000
 273        3PZ        -0.00000  -0.00001  -0.00000   0.00000  -0.00000
 274 24  N  1S         -0.00000  -0.00000  -0.00000   0.00000  -0.00000
 275        2S         -0.00000  -0.00001  -0.00000   0.00000  -0.00001
 276        2PX         0.00000   0.00000   0.00000   0.00000   0.00000
 277        2PY        -0.00000  -0.00000  -0.00000  -0.00000  -0.00001
 278        2PZ        -0.00000   0.00001   0.00000  -0.00000   0.00000
 279        3S         -0.00002   0.00001   0.00000   0.00000   0.00002
 280        3PX        -0.00003   0.00001  -0.00001  -0.00001  -0.00005
 281        3PY         0.00003   0.00000   0.00001   0.00002   0.00004
 282        3PZ         0.00005  -0.00006  -0.00001   0.00001  -0.00002
 283        4XX         0.00000  -0.00000  -0.00000  -0.00000   0.00000
 284        4YY        -0.00000  -0.00001  -0.00000  -0.00000  -0.00001
 285        4ZZ        -0.00000  -0.00001  -0.00000  -0.00000  -0.00001
 286        4XY         0.00000  -0.00000  -0.00000  -0.00000  -0.00000
 287        4XZ        -0.00000   0.00000   0.00000   0.00000   0.00000
 288        4YZ        -0.00000   0.00000   0.00000  -0.00000   0.00000
 289 25  H  1S         -0.00001   0.00003  -0.00000   0.00000   0.00003
 290        2S          0.00013  -0.00010   0.00002   0.00001  -0.00007
 291        3PX         0.00001  -0.00000  -0.00000   0.00000  -0.00000
 292        3PY         0.00000  -0.00000   0.00000   0.00000   0.00000
 293        3PZ        -0.00000   0.00001  -0.00000  -0.00000   0.00000
 294 26  C  1S          0.00000  -0.00000  -0.00000   0.00000  -0.00000
 295        2S          0.00000  -0.00001  -0.00000   0.00000  -0.00001
 296        2PX        -0.00000   0.00000   0.00000  -0.00000   0.00000
 297        2PY         0.00000  -0.00001   0.00000   0.00000  -0.00000
 298        2PZ         0.00000  -0.00000  -0.00000   0.00000  -0.00000
 299        3S          0.00004   0.00007   0.00003  -0.00002   0.00010
 300        3PX        -0.00000  -0.00003  -0.00001   0.00003  -0.00003
 301        3PY         0.00001  -0.00005  -0.00001   0.00001  -0.00002
 302        3PZ         0.00002  -0.00004  -0.00000   0.00001   0.00001
 303        4XX         0.00000  -0.00001  -0.00000   0.00000  -0.00000
 304        4YY         0.00000  -0.00001  -0.00000   0.00000  -0.00000
 305        4ZZ         0.00000  -0.00000   0.00000   0.00000   0.00000
 306        4XY         0.00000   0.00000   0.00000  -0.00000   0.00000
 307        4XZ        -0.00000   0.00000   0.00000  -0.00000  -0.00000
 308        4YZ         0.00000   0.00000   0.00000  -0.00000   0.00000
 309 27  H  1S          0.00000  -0.00001  -0.00000   0.00000  -0.00001
 310        2S          0.00000  -0.00002  -0.00000   0.00001  -0.00003
 311        3PX        -0.00000   0.00000  -0.00000   0.00000   0.00000
 312        3PY        -0.00000   0.00000   0.00000  -0.00000   0.00000
 313        3PZ         0.00000   0.00000   0.00000   0.00000   0.00000
 314 28  H  1S         -0.00000   0.00000   0.00000  -0.00000  -0.00000
 315        2S         -0.00000   0.00001   0.00000  -0.00001   0.00001
 316        3PX         0.00000  -0.00000  -0.00000   0.00000  -0.00000
 317        3PY        -0.00000   0.00000   0.00000  -0.00000   0.00000
 318        3PZ        -0.00000   0.00000   0.00000  -0.00000  -0.00000
                           6         7         8         9        10
                           O         O         O         O         O
     Eigenvalues --   -19.17899 -19.16678 -19.12217 -19.11269 -14.24227
   1 1   C  1S         -0.00002  -0.00001  -0.00000  -0.00002  -0.00000
   2        2S         -0.00016   0.00017  -0.00004  -0.00013  -0.00001
   3        2PX         0.00003   0.00010   0.00000  -0.00002  -0.00000
   4        2PY         0.00000  -0.00013  -0.00005  -0.00001  -0.00000
   5        2PZ         0.00004  -0.00029  -0.00005  -0.00006  -0.00000
   6        3S          0.00091  -0.00125  -0.00000   0.00059   0.00007
   7        3PX        -0.00018  -0.00069  -0.00046   0.00034   0.00004
   8        3PY         0.00076   0.00067   0.00057   0.00048  -0.00001
   9        3PZ        -0.00056   0.00105   0.00055   0.00060   0.00000
  10        4XX        -0.00002   0.00003   0.00006  -0.00003  -0.00000
  11        4YY         0.00005   0.00005  -0.00000   0.00003  -0.00000
  12        4ZZ        -0.00001   0.00019  -0.00002  -0.00002  -0.00000
  13        4XY         0.00003   0.00001   0.00001   0.00001  -0.00000
  14        4XZ        -0.00001  -0.00004  -0.00002   0.00001   0.00000
  15        4YZ        -0.00000   0.00007   0.00001   0.00002   0.00000
  16 2   O  1S         -0.00010   0.99273   0.00001   0.00001   0.00000
  17        2S         -0.00002   0.02580  -0.00001   0.00002   0.00001
  18        2PX        -0.00000  -0.00087  -0.00003   0.00001   0.00000
  19        2PY        -0.00003   0.00058  -0.00001   0.00004  -0.00000
  20        2PZ        -0.00000   0.00019   0.00001   0.00001   0.00000
  21        3S         -0.00018   0.01249   0.00029   0.00010  -0.00004
  22        3PX         0.00014   0.00004   0.00014  -0.00011  -0.00001
  23        3PY         0.00009   0.00009   0.00005  -0.00014  -0.00000
  24        3PZ        -0.00001   0.00059   0.00011  -0.00002  -0.00002
  25        4XX        -0.00002  -0.00810   0.00000   0.00005   0.00001
  26        4YY         0.00005  -0.00815   0.00001   0.00001   0.00001
  27        4ZZ        -0.00001  -0.00818   0.00004   0.00003   0.00000
  28        4XY         0.00002  -0.00001   0.00000  -0.00000  -0.00000
  29        4XZ         0.00000   0.00006   0.00001  -0.00001  -0.00000
  30        4YZ        -0.00001  -0.00004   0.00000  -0.00002  -0.00000
  31 3   H  1S         -0.00005   0.00033   0.00005   0.00003  -0.00000
  32        2S          0.00035  -0.00120  -0.00016  -0.00023  -0.00000
  33        3PX         0.00003  -0.00010  -0.00001  -0.00001  -0.00000
  34        3PY         0.00001   0.00004  -0.00000   0.00001   0.00000
  35        3PZ         0.00002  -0.00014  -0.00001  -0.00002  -0.00000
  36 4   P  1S          0.00000   0.00000   0.00002  -0.00000  -0.00000
  37        2S          0.00001   0.00004  -0.00007  -0.00004  -0.00000
  38        2PX        -0.00000  -0.00000  -0.00002   0.00000   0.00000
  39        2PY        -0.00000   0.00000   0.00000   0.00000   0.00000
  40        2PZ        -0.00000   0.00000   0.00001   0.00001   0.00000
  41        3S          0.00007   0.00028   0.00089  -0.00015  -0.00001
  42        3PX         0.00004   0.00009   0.00012  -0.00006  -0.00001
  43        3PY         0.00001   0.00001   0.00006  -0.00005  -0.00000
  44        3PZ         0.00001  -0.00006   0.00011  -0.00008  -0.00000
  45        4S         -0.00033  -0.00110  -0.00324   0.00075   0.00006
  46        4PX        -0.00013  -0.00048   0.00000   0.00019   0.00003
  47        4PY        -0.00018   0.00024  -0.00111   0.00029   0.00000
  48        4PZ        -0.00011   0.00027  -0.00220  -0.00016   0.00001
  49        5XX         0.00001   0.00003  -0.00025  -0.00004  -0.00000
  50        5YY         0.00002  -0.00003  -0.00027  -0.00006  -0.00000
  51        5ZZ        -0.00000  -0.00003  -0.00019  -0.00001  -0.00000
  52        5XY        -0.00002  -0.00003  -0.00002  -0.00001   0.00000
  53        5XZ         0.00004   0.00000  -0.00004  -0.00002  -0.00000
  54        5YZ         0.00000  -0.00002   0.00005  -0.00000   0.00000
  55 5   P  1S          0.00001   0.00000  -0.00000   0.00002   0.00000
  56        2S          0.00000   0.00004  -0.00003  -0.00007   0.00000
  57        2PX        -0.00005  -0.00002  -0.00000  -0.00000   0.00000
  58        2PY        -0.00001   0.00001  -0.00000   0.00002   0.00000
  59        2PZ         0.00004  -0.00000  -0.00000   0.00000   0.00000
  60        3S          0.00040   0.00023  -0.00011   0.00094   0.00000
  61        3PX         0.00012   0.00014   0.00004   0.00004  -0.00000
  62        3PY        -0.00008  -0.00013   0.00002  -0.00008  -0.00000
  63        3PZ        -0.00013  -0.00002   0.00000   0.00014  -0.00000
  64        4S         -0.00363  -0.00085  -0.00004  -0.00359  -0.00002
  65        4PX        -0.00062  -0.00004  -0.00014  -0.00043  -0.00000
  66        4PY         0.00028   0.00038   0.00006   0.00010   0.00003
  67        4PZ         0.00223   0.00021  -0.00023  -0.00246  -0.00002
  68        5XX         0.00011   0.00001   0.00000  -0.00028   0.00000
  69        5YY        -0.00002   0.00003  -0.00004  -0.00028  -0.00000
  70        5ZZ         0.00001  -0.00003  -0.00003  -0.00019   0.00000
  71        5XY         0.00003  -0.00005   0.00000  -0.00002  -0.00000
  72        5XZ        -0.00024  -0.00002  -0.00004   0.00002  -0.00000
  73        5YZ        -0.00007   0.00001  -0.00002   0.00003  -0.00000
  74 6   O  1S          0.00003  -0.00004   0.00003   0.00003   0.00000
  75        2S          0.00001  -0.00011  -0.00001   0.00008   0.00000
  76        2PX         0.00002  -0.00002   0.00003   0.00000   0.00000
  77        2PY        -0.00002  -0.00000  -0.00005   0.00001  -0.00000
  78        2PZ        -0.00001   0.00002  -0.00003   0.00002   0.00000
  79        3S         -0.00003   0.00051  -0.00002  -0.00043  -0.00000
  80        3PX        -0.00007   0.00022  -0.00009  -0.00007  -0.00000
  81        3PY         0.00006  -0.00001   0.00023  -0.00007   0.00000
  82        3PZ         0.00003  -0.00006   0.00028  -0.00012  -0.00000
  83        4XX         0.00001  -0.00007   0.00001   0.00008   0.00000
  84        4YY         0.00003  -0.00007  -0.00001   0.00006   0.00000
  85        4ZZ         0.00001  -0.00008   0.00005   0.00006   0.00000
  86        4XY         0.00001  -0.00000   0.00002   0.00000   0.00000
  87        4XZ         0.00000  -0.00001   0.00002  -0.00001  -0.00000
  88        4YZ         0.00001  -0.00000  -0.00000  -0.00000  -0.00000
  89 7   H  1S         -0.00000   0.00001   0.00001  -0.00001  -0.00000
  90        2S         -0.00004   0.00007  -0.00005  -0.00003   0.00000
  91        3PX        -0.00000   0.00001   0.00001  -0.00002   0.00000
  92        3PY        -0.00001   0.00001  -0.00000  -0.00001  -0.00000
  93        3PZ        -0.00001   0.00002  -0.00001   0.00001   0.00000
  94 8   O  1S         -0.00000  -0.00007   0.00006  -0.00000   0.00000
  95        2S         -0.00001  -0.00017   0.00001  -0.00000   0.00000
  96        2PX        -0.00001  -0.00002   0.00001   0.00000  -0.00000
  97        2PY        -0.00001  -0.00003  -0.00002  -0.00000   0.00000
  98        2PZ        -0.00000   0.00001  -0.00005  -0.00000   0.00000
  99        3S          0.00002   0.00076  -0.00006  -0.00002  -0.00001
 100        3PX         0.00003   0.00011  -0.00002  -0.00002  -0.00000
 101        3PY         0.00004   0.00022   0.00022  -0.00001  -0.00001
 102        3PZ         0.00000  -0.00010   0.00033   0.00001  -0.00000
 103        4XX        -0.00001  -0.00011   0.00005   0.00000   0.00000
 104        4YY        -0.00000  -0.00010   0.00008   0.00001   0.00000
 105        4ZZ        -0.00001  -0.00012   0.00004  -0.00001   0.00000
 106        4XY         0.00000   0.00002   0.00000   0.00000  -0.00000
 107        4XZ        -0.00000  -0.00001   0.00001  -0.00000   0.00000
 108        4YZ         0.00000  -0.00001   0.00001   0.00001  -0.00000
 109 9   H  1S          0.00001   0.00000  -0.00010   0.00000   0.00000
 110        2S          0.00001   0.00008   0.00032   0.00003  -0.00001
 111        3PX        -0.00000  -0.00000   0.00000  -0.00000  -0.00000
 112        3PY         0.00000   0.00000   0.00004   0.00000  -0.00000
 113        3PZ        -0.00001  -0.00002   0.00003  -0.00000   0.00000
 114 10  O  1S         -0.00021  -0.00009  -0.00003   0.00005   0.00000
 115        2S         -0.00024  -0.00014  -0.00005   0.00003   0.00000
 116        2PX        -0.00000  -0.00001   0.00003   0.00003   0.00000
 117        2PY         0.00004   0.00003   0.00001  -0.00002   0.00000
 118        2PZ         0.00003   0.00002  -0.00003  -0.00006   0.00000
 119        3S          0.00147   0.00061   0.00015  -0.00015  -0.00000
 120        3PX         0.00033   0.00012  -0.00008  -0.00001  -0.00000
 121        3PY        -0.00044  -0.00024  -0.00010   0.00010  -0.00000
 122        3PZ        -0.00001  -0.00002   0.00014   0.00041  -0.00000
 123        4XX        -0.00020  -0.00010  -0.00004   0.00005  -0.00000
 124        4YY        -0.00018  -0.00011  -0.00009   0.00005   0.00000
 125        4ZZ        -0.00014  -0.00011  -0.00004   0.00007  -0.00000
 126        4XY        -0.00005  -0.00002   0.00001  -0.00000  -0.00000
 127        4XZ         0.00003   0.00000   0.00000   0.00004  -0.00000
 128        4YZ         0.00002   0.00001  -0.00002  -0.00003  -0.00000
 129 11  H  1S          0.00006   0.00004   0.00006  -0.00003   0.00000
 130        2S          0.00037   0.00002  -0.00003   0.00003  -0.00001
 131        3PX         0.00005  -0.00001   0.00000   0.00001  -0.00000
 132        3PY        -0.00005  -0.00003  -0.00003   0.00000   0.00000
 133        3PZ         0.00002   0.00001  -0.00001  -0.00000  -0.00000
 134 12  O  1S          0.99267   0.00010  -0.00000   0.00004  -0.00001
 135        2S          0.02568  -0.00004  -0.00001  -0.00003  -0.00002
 136        2PX         0.00029   0.00000   0.00000  -0.00002  -0.00000
 137        2PY        -0.00010  -0.00001   0.00000  -0.00001  -0.00000
[...]
 236         V                 2.181477          3.319248
 237         V                 2.191752          3.512787
 238         V                 2.198168          3.429808
 239         V                 2.221303          3.527217
 240         V                 2.256087          3.469902
 241         V                 2.277126          3.620841
 242         V                 2.299656          3.498609
 243         V                 2.314670          3.629859
 244         V                 2.330236          3.627983
 245         V                 2.336835          3.654634
 246         V                 2.346833          3.604538
 247         V                 2.368008          3.711594
 248         V                 2.383918          3.522612
 249         V                 2.402337          3.633070
 250         V                 2.406590          3.673634
 251         V                 2.414427          3.684835
 252         V                 2.432264          3.742779
 253         V                 2.443585          3.449881
 254         V                 2.453234          4.155087
 255         V                 2.479964          3.723853
 256         V                 2.486075          4.052411
 257         V                 2.489393          4.172056
 258         V                 2.506887          4.030171
 259         V                 2.538844          3.915463
 260         V                 2.571061          3.962971
 261         V                 2.578642          3.565780
 262         V                 2.595800          3.595366
 263         V                 2.607680          3.677628
 264         V                 2.608416          3.665657
 265         V                 2.613562          4.251610
 266         V                 2.619837          3.660819
 267         V                 2.624698          3.931774
 268         V                 2.636498          3.958096
 269         V                 2.655211          3.790481
 270         V                 2.671244          3.960343
 271         V                 2.686371          3.868815
 272         V                 2.691598          3.969271
 273         V                 2.707259          3.931280
 274         V                 2.726045          4.046917
 275         V                 2.738286          4.014482
 276         V                 2.751795          3.934974
 277         V                 2.754354          4.008064
 278         V                 2.769495          4.201321
 279         V                 2.778279          3.902980
 280         V                 2.817154          4.694954
 281         V                 2.834054          4.732388
 282         V                 2.849376          4.372259
 283         V                 2.880348          4.217575
 284         V                 2.909253          4.266787
 285         V                 2.943060          4.222046
 286         V                 3.008355          4.667272
 287         V                 3.058498          4.538628
 288         V                 3.118101          4.649394
 289         V                 3.246578          5.141549
 290         V                 3.285342          4.924387
 291         V                 3.314688          5.120267
 292         V                 3.340421          6.311719
 293         V                 3.343974          5.630715
 294         V                 3.355633          5.865082
 295         V                 3.362918          6.307394
 296         V                 3.424096          6.298579
 297         V                 3.451745          5.201222
 298         V                 3.460665          6.152243
 299         V                 3.488112          7.201047
 300         V                 3.504244          5.840518
 301         V                 3.525345          7.698179
 302         V                 3.564565         10.054891
 303         V                 3.858960          6.201532
 304         V                 3.872010          9.617610
 305         V                 3.902719          9.593025
 306         V                 4.002885         10.130723
 307         V                 4.043405         10.531879
 308         V                 4.060908         10.281451
 309         V                 4.175747         10.117964
 310         V                 4.197368         10.239275
 311         V                 4.273220         10.279164
 312         V                 4.292054         10.292582
 313         V                 4.349535         10.524089
 314         V                 4.374315         10.596404
 315         V                 4.437331         10.371796
 316         V                 4.536451         10.123477
 317         V                 4.674843         10.523883
 318         V                 4.826719         10.155083
 Total kinetic energy from orbitals= 1.527606079138D+03
                          Isotropic Fermi Contact Couplings
        Atom                 a.u.       MegaHertz       Gauss      10(-4) cm-1
     1  C(13)              0.02791      31.38056      11.19736      10.46743
     2  O(17)              0.00418      -2.53129      -0.90323      -0.84435
     3  H(1)               0.00035       1.57517       0.56206       0.52542
     4  P(31)              0.02135      38.67041      13.79856      12.89906
     5  P(31)             -0.00033      -0.60164      -0.21468      -0.20069
     6  O(17)              0.00570      -3.45493      -1.23281      -1.15244
     7  H(1)               0.00018       0.80695       0.28794       0.26917
     8  O(17)              0.00742      -4.49694      -1.60462      -1.50002
     9  H(1)               0.00006       0.27383       0.09771       0.09134
    10  O(17)             -0.00024       0.14494       0.05172       0.04835
    11  H(1)              -0.00003      -0.13783      -0.04918      -0.04597
    12  O(17)              0.01320      -8.00336      -2.85580      -2.66963
    13  H(1)              -0.00013      -0.56497      -0.20159      -0.18845
    14  O(17)              0.00957      -5.80093      -2.06992      -1.93498
    15  O(17)              0.00220      -1.33266      -0.47553      -0.44453
    16  C(13)             -0.00227      -2.55372      -0.91123      -0.85183
    17  H(1)               0.00147       6.59197       2.35218       2.19884
    18  H(1)              -0.00007      -0.33384      -0.11912      -0.11136
    19  C(13)             -0.00574      -6.45088      -2.30183      -2.15178
    20  C(13)              0.04921      55.31901      19.73920      18.45244
    21  C(13)             -0.00258      -2.90016      -1.03485      -0.96739
    22  C(13)             -0.01403     -15.77696      -5.62961      -5.26263
    23  H(1)              -0.00788     -35.21961     -12.56723     -11.74800
    24  N(14)              0.05806      18.75801       6.69332       6.25700
    25  H(1)              -0.00145      -6.46900      -2.30830      -2.15783
    26  C(13)              0.01059      11.90384       4.24759       3.97069
    27  H(1)              -0.00010      -0.44606      -0.15917      -0.14879
    28  H(1)              -0.00330     -14.74916      -5.26287      -4.91979
 --------------------------------------------------------
       Center         ----  Spin Dipole Couplings  ----
                      3XX-RR        3YY-RR        3ZZ-RR
 --------------------------------------------------------
     1   Atom        0.001708     -0.002395      0.000687
     2   Atom        0.006560     -0.003403     -0.003157
     3   Atom        0.001875     -0.001350     -0.000525
     4   Atom        0.005522     -0.004033     -0.001489
     5   Atom        0.005102     -0.001678     -0.003424
     6   Atom       -0.001223     -0.001201      0.002423
     7   Atom        0.000925     -0.000512     -0.000414
     8   Atom        0.002097     -0.000568     -0.001529
     9   Atom        0.000910     -0.000464     -0.000446
    10   Atom        0.000549      0.000322     -0.000871
    11   Atom        0.000404      0.000190     -0.000594
    12   Atom       -0.009204     -0.004979      0.014182
    13   Atom        0.000235      0.002381     -0.002616
    14   Atom        0.009198     -0.002360     -0.006838
    15   Atom        0.001673     -0.002316      0.000643
    16   Atom        0.005000     -0.001693     -0.003307
    17   Atom        0.004651     -0.002290     -0.002361
    18   Atom        0.003601     -0.002590     -0.001011
    19   Atom       -0.023831      0.020748      0.003083
    20   Atom       -0.212337      0.223767     -0.011430
    21   Atom       -0.009286      0.020153     -0.010867
    22   Atom        0.011948     -0.007771     -0.004177
    23   Atom       -0.016488      0.014586      0.001901
    24   Atom       -0.333345      0.381509     -0.048164
    25   Atom       -0.001510     -0.002088      0.003598
    26   Atom       -0.077765      0.084007     -0.006242
    27   Atom        0.000144     -0.002506      0.002362
    28   Atom        0.016386     -0.006061     -0.010326
 --------------------------------------------------------
                        XY            XZ            YZ
 --------------------------------------------------------
     1   Atom       -0.001440      0.001955     -0.000018
     2   Atom        0.001359      0.003184      0.000071
     3   Atom       -0.000515      0.001531     -0.000201
     4   Atom        0.002245     -0.005956     -0.001659
     5   Atom       -0.003740      0.001099     -0.000571
     6   Atom       -0.000979      0.001204     -0.002676
     7   Atom        0.000168      0.000402      0.000047
     8   Atom        0.002734      0.001905      0.001737
     9   Atom        0.000718     -0.000589     -0.000447
    10   Atom       -0.000492      0.000552      0.000248
    11   Atom       -0.000898      0.000327     -0.000292
    12   Atom       -0.006691      0.009033     -0.012699
    13   Atom       -0.002682      0.002588     -0.002580
    14   Atom       -0.011111     -0.006805      0.004559
    15   Atom       -0.000787     -0.003142      0.001205
    16   Atom       -0.000879     -0.001624      0.000448
    17   Atom        0.003212     -0.002459     -0.000394
    18   Atom        0.000286     -0.003783     -0.000700
    19   Atom       -0.014926      0.005754     -0.028990
    20   Atom       -0.137868      0.105934     -0.334540
    21   Atom       -0.003640      0.005069     -0.032375
    22   Atom        0.006813      0.001755      0.006096
    23   Atom        0.015733      0.027681      0.008667
    24   Atom       -0.214973      0.143903     -0.516645
    25   Atom       -0.003234     -0.005010      0.004581
    26   Atom       -0.051451      0.027812     -0.109242
    27   Atom       -0.000492     -0.002925      0.004569
    28   Atom        0.003764     -0.002931     -0.005297
 --------------------------------------------------------


 ---------------------------------------------------------------------------------
              Anisotropic Spin Dipole Couplings in Principal Axis System
 ---------------------------------------------------------------------------------

       Atom             a.u.   MegaHertz   Gauss  10(-4) cm-1        Axes

              Baa    -0.0030    -0.397    -0.142    -0.133  0.3609  0.9133 -0.1889
     1 C(13)  Bbb    -0.0005    -0.066    -0.024    -0.022 -0.4801  0.3555  0.8020
              Bcc     0.0035     0.463     0.165     0.155  0.7996 -0.1987  0.5667
 
              Baa    -0.0043     0.308     0.110     0.103 -0.3046  0.4150  0.8573
     2 O(17)  Bbb    -0.0034     0.247     0.088     0.082  0.0148  0.9021 -0.4314
              Bcc     0.0077    -0.555    -0.198    -0.185  0.9524  0.1187  0.2809
 
              Baa    -0.0014    -0.767    -0.274    -0.256  0.2292  0.9577 -0.1738
     3 H(1)   Bbb    -0.0013    -0.671    -0.240    -0.224 -0.3906  0.2540  0.8848
              Bcc     0.0027     1.438     0.513     0.480  0.8916 -0.1349  0.4323
 
              Baa    -0.0051    -1.103    -0.393    -0.368  0.3270  0.5296  0.7827
     4 P(31)  Bbb    -0.0044    -0.950    -0.339    -0.317 -0.4168  0.8241 -0.3835
              Bcc     0.0095     2.053     0.733     0.685  0.8482  0.2009 -0.4902
 
              Baa    -0.0036    -0.777    -0.277    -0.259  0.0106  0.3044  0.9525
     5 P(31)  Bbb    -0.0033    -0.716    -0.256    -0.239  0.4202  0.8630 -0.2805
              Bcc     0.0069     1.493     0.533     0.498  0.9074 -0.4032  0.1188
 
              Baa    -0.0027     0.195     0.070     0.065  0.2579  0.8800  0.3989
     6 O(17)  Bbb    -0.0016     0.113     0.040     0.038  0.9283 -0.1113 -0.3548
              Bcc     0.0043    -0.309    -0.110    -0.103  0.2678 -0.4618  0.8456
 
              Baa    -0.0005    -0.283    -0.101    -0.095 -0.1122  0.9936 -0.0092
     7 H(1)   Bbb    -0.0005    -0.280    -0.100    -0.093 -0.2649 -0.0210  0.9640
              Bcc     0.0011     0.563     0.201     0.188  0.9577  0.1106  0.2656
 
              Baa    -0.0029     0.207     0.074     0.069  0.0737 -0.6566  0.7506
     8 O(17)  Bbb    -0.0020     0.142     0.051     0.047  0.6290 -0.5535 -0.5459
              Bcc     0.0048    -0.349    -0.125    -0.116  0.7739  0.5124  0.3722
 
              Baa    -0.0009    -0.488    -0.174    -0.163 -0.1123  0.7848  0.6094
     9 H(1)   Bbb    -0.0006    -0.305    -0.109    -0.102  0.5149 -0.4786  0.7112
              Bcc     0.0015     0.793     0.283     0.264  0.8498  0.3937 -0.3504
 
              Baa    -0.0012     0.085     0.030     0.028 -0.3632 -0.2680  0.8923
    10 O(17)  Bbb     0.0002    -0.013    -0.005    -0.004  0.4386  0.7958  0.4175
              Bcc     0.0010    -0.072    -0.026    -0.024  0.8220 -0.5430  0.1715
 
              Baa    -0.0007    -0.371    -0.132    -0.124 -0.1608  0.1577  0.9743
    11 H(1)   Bbb    -0.0006    -0.324    -0.116    -0.108  0.6660  0.7458 -0.0108
              Bcc     0.0013     0.695     0.248     0.232  0.7284 -0.6472  0.2250
 
              Baa    -0.0141     1.021     0.364     0.341  0.7930  0.6089  0.0201
    12 O(17)  Bbb    -0.0101     0.729     0.260     0.243 -0.5212  0.6609  0.5400
              Bcc     0.0242    -1.750    -0.625    -0.584  0.3155 -0.4387  0.8414
 
              Baa    -0.0043    -2.298    -0.820    -0.767 -0.4020  0.1847  0.8968
    13 H(1)   Bbb    -0.0014    -0.768    -0.274    -0.256  0.7355  0.6485  0.1961
              Bcc     0.0057     3.067     1.094     1.023 -0.5454  0.7384 -0.3965
 
              Baa    -0.0097     0.701     0.250     0.234 -0.0459 -0.5773  0.8152
    14 O(17)  Bbb    -0.0089     0.644     0.230     0.215  0.5825  0.6475  0.4914
              Bcc     0.0186    -1.344    -0.480    -0.448  0.8116 -0.4974 -0.3065
 
              Baa    -0.0028     0.203     0.072     0.068 -0.1701  0.8713 -0.4603
    15 O(17)  Bbb    -0.0018     0.132     0.047     0.044  0.6513  0.4500  0.6110
              Bcc     0.0046    -0.334    -0.119    -0.111  0.7395 -0.1959 -0.6440
 
              Baa    -0.0037    -0.490    -0.175    -0.164  0.1680 -0.1474  0.9747
    16 C(13)  Bbb    -0.0018    -0.238    -0.085    -0.080  0.1563  0.9802  0.1213
              Bcc     0.0054     0.729     0.260     0.243  0.9733 -0.1319 -0.1877
 
              Baa    -0.0039    -2.061    -0.735    -0.687 -0.4286  0.7491 -0.5052
    17 H(1)   Bbb    -0.0027    -1.447    -0.516    -0.483  0.0261  0.5692  0.8218
              Bcc     0.0066     3.507     1.252     1.170  0.9031  0.3390 -0.2635
 
              Baa    -0.0034    -1.823    -0.650    -0.608  0.3914  0.5120  0.7646
    18 H(1)   Bbb    -0.0024    -1.255    -0.448    -0.419 -0.3059  0.8560 -0.4166
              Bcc     0.0058     3.077     1.098     1.027  0.8679  0.0709 -0.4917
 
              Baa    -0.0289    -3.878    -1.384    -1.294  0.9086  0.3775  0.1787
    19 C(13)  Bbb    -0.0168    -2.248    -0.802    -0.750 -0.3566  0.4784  0.8025
              Bcc     0.0457     6.127     2.186     2.044 -0.2175  0.7929 -0.5693
 
              Baa    -0.2587   -34.717   -12.388   -11.580  0.8196 -0.1494 -0.5532
    20 C(13)  Bbb    -0.2443   -32.778   -11.696   -10.934  0.5221  0.5924  0.6136
              Bcc     0.5030    67.495    24.084    22.514 -0.2360  0.7917 -0.5635
 
              Baa    -0.0315    -4.228    -1.509    -1.410 -0.1074  0.5225  0.8459
    21 C(13)  Bbb    -0.0097    -1.301    -0.464    -0.434  0.9877  0.1535  0.0305
              Bcc     0.0412     5.529     1.973     1.844 -0.1139  0.8387 -0.5325
 
              Baa    -0.0132    -1.768    -0.631    -0.590 -0.1883  0.8298 -0.5253
    22 C(13)  Bbb    -0.0016    -0.212    -0.076    -0.071 -0.3336  0.4490  0.8289
              Bcc     0.0148     1.980     0.707     0.661  0.9237  0.3314  0.1923
 
              Baa    -0.0377   -20.113    -7.177    -6.709  0.8252 -0.1584 -0.5422
    23 H(1)   Bbb     0.0025     1.334     0.476     0.445 -0.2503  0.7579 -0.6025
              Bcc     0.0352    18.779     6.701     6.264  0.5064  0.6329  0.5857
 
              Baa    -0.3934   -15.173    -5.414    -5.061  0.7949 -0.1681 -0.5829
    24 N(14)  Bbb    -0.3926   -15.141    -5.403    -5.051  0.5634  0.5612  0.6064
              Bcc     0.7860    30.314    10.817    10.112 -0.2252  0.8104 -0.5408
 
              Baa    -0.0050    -2.692    -0.961    -0.898  0.6752  0.7376  0.0004
    25 H(1)   Bbb    -0.0044    -2.321    -0.828    -0.774  0.5607 -0.5136  0.6494
              Bcc     0.0094     5.013     1.789     1.672 -0.4793  0.4383  0.7604
 
              Baa    -0.0934   -12.538    -4.474    -4.182  0.9109  0.3729  0.1766
    26 C(13)  Bbb    -0.0773   -10.372    -3.701    -3.460 -0.3437  0.4490  0.8248
              Bcc     0.1707    22.910     8.175     7.642 -0.2283  0.8120 -0.5371
 
              Baa    -0.0055    -2.928    -1.045    -0.977 -0.2152  0.8070 -0.5499
    27 H(1)   Bbb    -0.0009    -0.462    -0.165    -0.154  0.8856  0.3986  0.2384
              Bcc     0.0064     3.390     1.210     1.131 -0.4116  0.4357  0.8005
 
              Baa    -0.0139    -7.420    -2.648    -2.475  0.0114  0.5558  0.8313
    28 H(1)   Bbb    -0.0036    -1.929    -0.688    -0.643 -0.2314  0.8102 -0.5385
              Bcc     0.0175     9.349     3.336     3.118  0.9728  0.1862 -0.1378
 

 ---------------------------------------------------------------------------------


 Test job not archived.
 1\1\GINC-BATAGIN2\SP\UB3LYP\6-31G(d,p)\C7H11N1O7P2(1-,2)\ORISON\22-Jan
 -2021\0\\#t B3LYP/6-31G(d,p) scrf=(solvent=water) # Gfinput IOP(6/7=3)
  Pop=hirshfeld Density Test # Units(Ang,Deg)\\w-risendronate-opt-g09.l
 og\\-1,2\C,0,0.67062,0.26051,-0.22272\O,0,0.45922,0.66161,-1.56466\H,0
 ,1.18705,0.31717,-2.1066\P,0,2.40713,0.73272,0.30004\P,0,0.38903,-1.57
 927,-0.02406\O,0,3.19549,0.4303,-1.07506\H,0,3.95431,1.01728,-1.22263\
 O,0,2.42561,2.35184,0.31681\H,0,2.46108,2.70633,1.21929\O,0,1.62813,-2
 .13875,-0.88775\H,0,1.58884,-3.09366,-1.05918\O,0,-0.84941,-1.95638,-0
 .9958\H,0,-1.69249,-1.97528,-0.51572\O,0,0.23496,-2.04366,1.38168\O,0,
 2.89865,0.09068,1.54817\C,0,-0.32732,1.04108,0.67394\H,0,-0.09892,2.10
 235,0.54125\H,0,-0.12188,0.78591,1.71721\C,0,-1.7912,0.80509,0.36906\C
 ,0,-2.41924,1.38428,-0.74164\C,0,-2.58473,0.01926,1.21557\C,0,-3.7733,
 1.14605,-0.95784\H,0,-1.85077,2.00915,-1.42222\N,0,-3.88987,-0.22306,1
 .02\H,0,-2.13793,-0.43916,2.09627\C,0,-4.46355,0.33586,-0.05443\H,0,-4
 .28911,1.58059,-1.80763\H,0,-5.52241,0.13098,-0.19836\\Version=EM64L-G
 16RevA.03\State=2-A\HF=-1537.5963026\S2=0.758783\S2-1=0.\S2A=0.750039\
 RMSD=5.910e-09\Dipole=5.5265823,0.6752356,-2.2299565\Quadrupole=-21.38
 90975,16.7005304,4.6885672,9.190461,-1.8924362,10.566339\PG=C01 [X(C7H
 11N1O7P2)]\\@


 IT MATTERS NOT HOW DEEP YOU PLOW,
 BUT HOW LONG YOU STAY IN THE FURROW.
 Job cpu time:       0 days  0 hours 26 minutes 59.4 seconds.
 Elapsed time:       0 days  0 hours  3 minutes 22.8 seconds.
 File lengths (MBytes):  RWF=    183 Int=      0 D2E=      0 Chk=      9 Scr=      1
 Normal termination of Gaussian 16 at Fri Jan 22 02:51:13 2021.
