 Entering Gaussian System, Link 0=g16
 Input=w-risendronate_neutral_scf_g09.com
 Output=w-risendronate_neutral_scf_g09.log
 Initial command:
 /usr/local//g16/l1.exe "/home/orison/scrgauss/Gau-23581.inp" -scrdir="/home/orison/scrgauss/"
 Entering Link 1 = /usr/local//g16/l1.exe PID=     23583.
  
 Copyright (c) 1988,1990,1992,1993,1995,1998,2003,2009,2016,
            Gaussian, Inc.  All Rights Reserved.
  
 This is part of the Gaussian(R) 16 program.  It is based on
 the Gaussian(R) 09 system (copyright 2009, Gaussian, Inc.),
 the Gaussian(R) 03 system (copyright 2003, Gaussian, Inc.),
 the Gaussian(R) 98 system (copyright 1998, Gaussian, Inc.),
 the Gaussian(R) 94 system (copyright 1995, Gaussian, Inc.),
 the Gaussian 92(TM) system (copyright 1992, Gaussian, Inc.),
 the Gaussian 90(TM) system (copyright 1990, Gaussian, Inc.),
 the Gaussian 88(TM) system (copyright 1988, Gaussian, Inc.),
 the Gaussian 86(TM) system (copyright 1986, Carnegie Mellon
 University), and the Gaussian 82(TM) system (copyright 1983,
 Carnegie Mellon University). Gaussian is a federally registered
 trademark of Gaussian, Inc.
  
 This software contains proprietary and confidential information,
 including trade secrets, belonging to Gaussian, Inc.
  
 This software is provided under written license and may be
 used, copied, transmitted, or stored only in accord with that
 written license.
  
 The following legend is applicable only to US Government
 contracts under FAR:
  
                    RESTRICTED RIGHTS LEGEND
  
 Use, reproduction and disclosure by the US Government is
 subject to restrictions as set forth in subparagraphs (a)
 and (c) of the Commercial Computer Software - Restricted
 Rights clause in FAR 52.227-19.
  
 Gaussian, Inc.
 340 Quinnipiac St., Bldg. 40, Wallingford CT 06492
  
  
 ---------------------------------------------------------------
 Warning -- This program may not be used in any manner that
 competes with the business of Gaussian, Inc. or will provide
 assistance to any competitor of Gaussian, Inc.  The licensee
 of this program is prohibited from giving any competitor of
 Gaussian, Inc. access to this program.  By using this program,
 the user acknowledges that Gaussian, Inc. is engaged in the
 business of creating and licensing software in the field of
 computational chemistry and represents and warrants to the
 licensee that it is not a competitor of Gaussian, Inc. and that
 it will not use this program in any manner prohibited above.
 ---------------------------------------------------------------
  

 Cite this work as:
 Gaussian 16, Revision A.03,
 M. J. Frisch, G. W. Trucks, H. B. Schlegel, G. E. Scuseria, 
 M. A. Robb, J. R. Cheeseman, G. Scalmani, V. Barone, 
 G. A. Petersson, H. Nakatsuji, X. Li, M. Caricato, A. V. Marenich, 
 J. Bloino, B. G. Janesko, R. Gomperts, B. Mennucci, H. P. Hratchian, 
 J. V. Ortiz, A. F. Izmaylov, J. L. Sonnenberg, D. Williams-Young, 
 F. Ding, F. Lipparini, F. Egidi, J. Goings, B. Peng, A. Petrone, 
 T. Henderson, D. Ranasinghe, V. G. Zakrzewski, J. Gao, N. Rega, 
 G. Zheng, W. Liang, M. Hada, M. Ehara, K. Toyota, R. Fukuda, 
 J. Hasegawa, M. Ishida, T. Nakajima, Y. Honda, O. Kitao, H. Nakai, 
 T. Vreven, K. Throssell, J. A. Montgomery, Jr., J. E. Peralta, 
 F. Ogliaro, M. J. Bearpark, J. J. Heyd, E. N. Brothers, K. N. Kudin, 
 V. N. Staroverov, T. A. Keith, R. Kobayashi, J. Normand, 
 K. Raghavachari, A. P. Rendell, J. C. Burant, S. S. Iyengar, 
 J. Tomasi, M. Cossi, J. M. Millam, M. Klene, C. Adamo, R. Cammi, 
 J. W. Ochterski, R. L. Martin, K. Morokuma, O. Farkas, 
 J. B. Foresman, and D. J. Fox, Gaussian, Inc., Wallingford CT, 2016.
 
 ******************************************
 Gaussian 16:  EM64L-G16RevA.03 25-Dec-2016
                22-Jan-2021 
 ******************************************
 %nproc=8
 Will use up to    8 processors via shared memory.
 %Mem=4GB
 ----------------------------------------------------------------------
 #t B3LYP/6-31G(d,p) scrf=(solvent=water) # Gfinput IOP(6/7=3) Pop=hirs
 hfeld Density Test # Units(Ang,Deg)
 ----------------------------------------------------------------------
 --------------------------
 w-risendronate-opt-g09.log
 --------------------------
 Symbolic Z-matrix:
 Charge =  0 Multiplicity = 1
 C                     0.67062   0.26051  -0.22272 
 O                     0.45922   0.66161  -1.56466 
 H                     1.18705   0.31717  -2.1066 
 P                     2.40713   0.73272   0.30004 
 P                     0.38903  -1.57927  -0.02406 
 O                     3.19549   0.4303   -1.07506 
 H                     3.95431   1.01728  -1.22263 
 O                     2.42561   2.35184   0.31681 
 H                     2.46108   2.70633   1.21929 
 O                     1.62813  -2.13875  -0.88775 
 H                     1.58884  -3.09366  -1.05918 
 O                    -0.84941  -1.95638  -0.9958 
 H                    -1.69249  -1.97528  -0.51572 
 O                     0.23496  -2.04366   1.38168 
 O                     2.89865   0.09068   1.54817 
 C                    -0.32732   1.04108   0.67394 
 H                    -0.09892   2.10235   0.54125 
 H                    -0.12188   0.78591   1.71721 
 C                    -1.7912    0.80509   0.36906 
 C                    -2.41924   1.38428  -0.74164 
 C                    -2.58473   0.01926   1.21557 
 C                    -3.7733    1.14605  -0.95784 
 H                    -1.85077   2.00915  -1.42222 
 N                    -3.88987  -0.22306   1.02 
 H                    -2.13793  -0.43916   2.09627 
 C                    -4.46355   0.33586  -0.05443 
 H                    -4.28911   1.58059  -1.80763 
 H                    -5.52241   0.13098  -0.19836 
 
                    Distance matrix (angstroms):
                    1          2          3          4          5
     1  C    0.000000
     2  O    1.416465   0.000000
     3  H    1.954204   0.970605   0.000000
     4  P    1.873960   2.697502   2.730054   0.000000
     5  P    1.871777   2.720279   2.927506   3.085947   0.000000
     6  O    2.670259   2.789334   2.260687   1.613651   3.608212
     7  H    3.514988   3.529751   2.988191   2.189352   4.570543
     8  O    2.782938   3.203669   3.398063   1.619312   4.440436
     9  H    3.356661   3.992330   4.288681   2.177858   4.919927
    10  O    2.667497   3.109111   2.776993   3.203596   1.610698
    11  H    3.576765   3.953935   3.590583   4.142253   2.191893
    12  O    2.796917   2.981608   3.248088   4.417637   1.618711
    13  H    3.266327   3.561365   4.009735   4.980523   2.175150
    14  O    2.841320   4.006207   4.318344   3.687350   1.488456
    15  O    2.851142   3.995809   4.042056   1.487157   3.399828
    16  C    1.552151   2.402909   3.247886   2.777068   2.804745
    17  H    2.137339   2.611917   3.442629   2.866070   3.756594
    18  H    2.160424   3.335236   4.068727   2.899499   2.981128
    19  C    2.589851   2.970564   3.903451   4.199521   3.254707
    20  C    3.328569   3.079796   4.000896   4.980309   4.145350
    21  C    3.567097   4.172280   5.035066   5.125026   3.596558
    22  C    4.590535   4.303154   5.158659   6.320666   5.062046
    23  H    3.294533   2.678098   3.543942   4.767092   4.455145
    24  N    4.751448   5.135922   5.986868   6.409685   4.608509
    25  H    3.708801   4.621611   5.412175   5.025666   3.490154
    26  C    5.137480   5.159513   6.011741   6.891255   5.216913
    27  H    5.371543   4.842540   5.627961   7.071123   5.920374
    28  H    6.194432   6.158591   6.978030   7.967942   6.156335
                    6          7          8          9         10
     6  O    0.000000
     7  H    0.970634   0.000000
     8  O    2.494461   2.547126   0.000000
     9  H    3.314168   3.323492   0.970253   0.000000
    10  O    3.015248   3.934944   4.717238   5.348666   0.000000
    11  H    3.872967   4.745734   5.678644   6.292226   0.970971
    12  O    4.697206   5.654187   5.568614   6.132441   2.486592
    13  H    5.476497   6.429735   6.031237   6.494604   3.345392
    14  O    4.573925   5.475888   5.025268   5.248275   2.664635
    15  O    2.661727   3.106499   2.617797   2.672313   3.538119
    16  C    3.980232   4.682937   3.069895   3.293272   4.046477
    17  H    4.032536   4.551629   2.546737   2.716271   4.797048
    18  H    4.350652   5.031055   3.301963   3.256934   4.289754
    19  C    5.205096   5.965684   4.491843   4.734922   4.683757
    20  C    5.704949   6.402201   5.052629   5.423153   5.367895
    21  C    6.231122   7.049816   5.599304   5.716691   5.179686
    22  C    7.006431   7.733217   6.442449   6.785415   6.322204
    23  H    5.298870   5.892588   4.629156   5.104477   5.439989
    24  N    7.417444   8.252211   6.856375   6.996828   6.144730
    25  H    6.265673   7.088844   5.637558   5.640398   5.096684
    26  C    7.727322   8.525807   7.187664   7.429131   6.627721
    27  H    7.607829   8.283328   7.084881   7.482954   7.049354
    28  H    8.766982   9.573029   8.268533   8.507542   7.533734
                   11         12         13         14         15
    11  H    0.000000
    12  O    2.691187   0.000000
    13  H    3.509024   0.970370   0.000000
    14  O    2.982162   2.614553   2.705525   0.000000
    15  O    4.319016   4.970935   5.441176   3.417363   0.000000
    16  C    4.875597   3.470645   3.518154   3.214448   3.474827
    17  H    5.692840   4.404435   4.503745   4.243489   3.747817
    18  H    5.068133   3.925542   3.882906   2.871651   3.104114
    19  C    5.353951   3.221107   2.919424   3.639519   4.888290
    20  C    6.018096   3.699861   3.444684   4.827426   5.932671
    21  C    5.681852   3.435789   2.787767   3.497697   5.493922
    22  C    6.836516   4.263290   3.777293   5.631496   7.204777
    23  H    6.164526   4.112175   4.089313   5.351392   5.921211
    24  N    6.525304   4.038842   3.202685   4.523231   6.816260
    25  H    5.558062   3.677382   3.062772   2.952231   5.093946
    26  C    7.028695   4.382071   3.637709   5.458986   7.538596
    27  H    7.547124   5.000076   4.588647   6.616199   8.071253
    28  H    7.855520   5.179760   4.382389   6.353967   8.600363
                   16         17         18         19         20
    16  C    0.000000
    17  H    1.093649   0.000000
    18  H    1.093494   1.765339   0.000000
    19  C    1.513799   2.139239   2.145811   0.000000
    20  C    2.549075   2.746874   3.417873   1.401267   0.000000
    21  C    2.536411   3.312586   2.627741   1.401356   2.391932
    22  C    3.814250   4.082015   4.540756   2.409489   1.391752
    23  H    2.766215   2.633036   3.787004   2.159165   1.084809
    24  N    3.795994   4.473034   3.962559   2.425950   2.801726
    25  H    2.737232   3.610391   2.389339   2.156765   3.384938
    26  C    4.258668   4.746084   4.710770   2.746084   2.398050
    27  H    4.705852   4.831890   5.515598   3.402783   2.161316
    28  H    5.345853   5.817866   5.767501   3.833839   3.390513
                   21         22         23         24         25
    21  C    0.000000
    22  C    2.721409   0.000000
    23  H    3.384715   2.157942   0.000000
    24  N    1.341774   2.408299   3.886532   0.000000
    25  H    1.088766   3.809844   4.296098   2.067450   0.000000
    26  C    2.289782   1.396067   3.390777   1.340112   3.261085
    27  H    3.805575   1.084909   2.505535   3.377579   4.893608
    28  H    3.262153   2.160223   4.301894   2.067591   4.128570
                   26         27         28
    26  C    0.000000
    27  H    2.157195   0.000000
    28  H    1.088061   2.492418   0.000000
 Framework group  C1[X(C7H11NO7P2)]
 Deg. of freedom    78
                         Standard orientation:                         
 ---------------------------------------------------------------------
 Center     Atomic      Atomic             Coordinates (Angstroms)
 Number     Number       Type             X           Y           Z
 ---------------------------------------------------------------------
      1          6           0       -0.670620   -0.260511   -0.222721
      2          8           0       -0.459220   -0.661611   -1.564661
      3          1           0       -1.187050   -0.317171   -2.106601
      4         15           0       -2.407130   -0.732722    0.300039
      5         15           0       -0.389031    1.579269   -0.024061
      6          8           0       -3.195490   -0.430302   -1.075061
      7          1           0       -3.954310   -1.017282   -1.222631
      8          8           0       -2.425609   -2.351842    0.316809
      9          1           0       -2.461079   -2.706332    1.219289
     10          8           0       -1.628131    2.138749   -0.887751
     11          1           0       -1.588842    3.093659   -1.059181
     12          8           0        0.849409    1.956380   -0.995801
     13          1           0        1.692489    1.975280   -0.515721
     14          8           0       -0.234961    2.043659    1.381679
     15          8           0       -2.898650   -0.090682    1.548169
     16          6           0        0.327320   -1.041081    0.673939
     17          1           0        0.098921   -2.102351    0.541249
     18          1           0        0.121880   -0.785911    1.717209
     19          6           0        1.791200   -0.805090    0.369059
     20          6           0        2.419240   -1.384280   -0.741641
     21          6           0        2.584730   -0.019260    1.215569
     22          6           0        3.773300   -1.146049   -0.957841
     23          1           0        1.850771   -2.009150   -1.422221
     24          7           0        3.889870    0.223061    1.019999
     25          1           0        2.137930    0.439160    2.096269
     26          6           0        4.463550   -0.335859   -0.054431
     27          1           0        4.289110   -1.580589   -1.807631
     28          1           0        5.522410   -0.130979   -0.198361
 ---------------------------------------------------------------------
 Rotational constants (GHZ):           0.6934188           0.2845137           0.2492912
 AO basis set in the form of general basis input (Overlap normalization):
      1 0
 S   6 1.00       0.000000000000
      0.3047524880D+04  0.1834737132D-02
      0.4573695180D+03  0.1403732281D-01
      0.1039486850D+03  0.6884262226D-01
      0.2921015530D+02  0.2321844432D+00
      0.9286662960D+01  0.4679413484D+00
      0.3163926960D+01  0.3623119853D+00
 SP   3 1.00       0.000000000000
      0.7868272350D+01 -0.1193324198D+00  0.6899906659D-01
      0.1881288540D+01 -0.1608541517D+00  0.3164239610D+00
      0.5442492580D+00  0.1143456438D+01  0.7443082909D+00
 SP   1 1.00       0.000000000000
      0.1687144782D+00  0.1000000000D+01  0.1000000000D+01
 D   1 1.00       0.000000000000
      0.8000000000D+00  0.1000000000D+01
 ****
      2 0
 S   6 1.00       0.000000000000
      0.5484671660D+04  0.1831074430D-02
      0.8252349460D+03  0.1395017220D-01
      0.1880469580D+03  0.6844507810D-01
      0.5296450000D+02  0.2327143360D+00
      0.1689757040D+02  0.4701928980D+00
      0.5799635340D+01  0.3585208530D+00
 SP   3 1.00       0.000000000000
      0.1553961625D+02 -0.1107775495D+00  0.7087426823D-01
      0.3599933586D+01 -0.1480262627D+00  0.3397528391D+00
      0.1013761750D+01  0.1130767015D+01  0.7271585773D+00
 SP   1 1.00       0.000000000000
      0.2700058226D+00  0.1000000000D+01  0.1000000000D+01
 D   1 1.00       0.000000000000
      0.8000000000D+00  0.1000000000D+01
 ****
      3 0
 S   3 1.00       0.000000000000
      0.1873113696D+02  0.3349460434D-01
      0.2825394365D+01  0.2347269535D+00
      0.6401216923D+00  0.8137573261D+00
 S   1 1.00       0.000000000000
      0.1612777588D+00  0.1000000000D+01
 P   1 1.00       0.000000000000
      0.1100000000D+01  0.1000000000D+01
 ****
      4 0
 S   6 1.00       0.000000000000
      0.1941330000D+05  0.1851598923D-02
      0.2909420000D+04  0.1420619174D-01
      0.6613640000D+03  0.6999945928D-01
      0.1857590000D+03  0.2400788603D+00
      0.5919430000D+02  0.4847617180D+00
      0.2003100000D+02  0.3351998050D+00
 SP   6 1.00       0.000000000000
      0.3394780000D+03 -0.2782170105D-02  0.4564616191D-02
      0.8101010000D+02 -0.3604990135D-01  0.3369357188D-01
      0.2587800000D+02 -0.1166310044D+00  0.1397548834D+00
      0.9452210000D+01  0.9683280364D-01  0.3393617168D+00
      0.3665660000D+01  0.6144180231D+00  0.4509206237D+00
      0.1467460000D+01  0.4037980152D+00  0.2385858009D+00
 SP   3 1.00       0.000000000000
      0.2156230000D+01 -0.2529241139D+00 -0.1776531273D-01
      0.7489970000D+00  0.3285184468D-01  0.2740581964D+00
      0.2831450000D+00  0.1081254762D+01  0.7854215630D+00
 SP   1 1.00       0.000000000000
      0.9983170000D-01  0.1000000000D+01  0.1000000000D+01
 D   1 1.00       0.000000000000
      0.5500000000D+00  0.1000000000D+01
 ****
      5 0
 S   6 1.00       0.000000000000
      0.1941330000D+05  0.1851598923D-02
      0.2909420000D+04  0.1420619174D-01
      0.6613640000D+03  0.6999945928D-01
      0.1857590000D+03  0.2400788603D+00
      0.5919430000D+02  0.4847617180D+00
      0.2003100000D+02  0.3351998050D+00
 SP   6 1.00       0.000000000000
      0.3394780000D+03 -0.2782170105D-02  0.4564616191D-02
      0.8101010000D+02 -0.3604990135D-01  0.3369357188D-01
      0.2587800000D+02 -0.1166310044D+00  0.1397548834D+00
      0.9452210000D+01  0.9683280364D-01  0.3393617168D+00
      0.3665660000D+01  0.6144180231D+00  0.4509206237D+00
      0.1467460000D+01  0.4037980152D+00  0.2385858009D+00
 SP   3 1.00       0.000000000000
      0.2156230000D+01 -0.2529241139D+00 -0.1776531273D-01
      0.7489970000D+00  0.3285184468D-01  0.2740581964D+00
      0.2831450000D+00  0.1081254762D+01  0.7854215630D+00
 SP   1 1.00       0.000000000000
      0.9983170000D-01  0.1000000000D+01  0.1000000000D+01
 D   1 1.00       0.000000000000
      0.5500000000D+00  0.1000000000D+01
 ****
      6 0
 S   6 1.00       0.000000000000
      0.5484671660D+04  0.1831074430D-02
      0.8252349460D+03  0.1395017220D-01
      0.1880469580D+03  0.6844507810D-01
      0.5296450000D+02  0.2327143360D+00
      0.1689757040D+02  0.4701928980D+00
      0.5799635340D+01  0.3585208530D+00
 SP   3 1.00       0.000000000000
      0.1553961625D+02 -0.1107775495D+00  0.7087426823D-01
      0.3599933586D+01 -0.1480262627D+00  0.3397528391D+00
      0.1013761750D+01  0.1130767015D+01  0.7271585773D+00
 SP   1 1.00       0.000000000000
      0.2700058226D+00  0.1000000000D+01  0.1000000000D+01
 D   1 1.00       0.000000000000
      0.8000000000D+00  0.1000000000D+01
 ****
      7 0
 S   3 1.00       0.000000000000
      0.1873113696D+02  0.3349460434D-01
      0.2825394365D+01  0.2347269535D+00
      0.6401216923D+00  0.8137573261D+00
 S   1 1.00       0.000000000000
      0.1612777588D+00  0.1000000000D+01
 P   1 1.00       0.000000000000
      0.1100000000D+01  0.1000000000D+01
 ****
      8 0
 S   6 1.00       0.000000000000
      0.5484671660D+04  0.1831074430D-02
      0.8252349460D+03  0.1395017220D-01
      0.1880469580D+03  0.6844507810D-01
      0.5296450000D+02  0.2327143360D+00
      0.1689757040D+02  0.4701928980D+00
      0.5799635340D+01  0.3585208530D+00
 SP   3 1.00       0.000000000000
      0.1553961625D+02 -0.1107775495D+00  0.7087426823D-01
      0.3599933586D+01 -0.1480262627D+00  0.3397528391D+00
      0.1013761750D+01  0.1130767015D+01  0.7271585773D+00
 SP   1 1.00       0.000000000000
      0.2700058226D+00  0.1000000000D+01  0.1000000000D+01
 D   1 1.00       0.000000000000
      0.8000000000D+00  0.1000000000D+01
 ****
      9 0
 S   3 1.00       0.000000000000
      0.1873113696D+02  0.3349460434D-01
      0.2825394365D+01  0.2347269535D+00
      0.6401216923D+00  0.8137573261D+00
 S   1 1.00       0.000000000000
      0.1612777588D+00  0.1000000000D+01
 P   1 1.00       0.000000000000
      0.1100000000D+01  0.1000000000D+01
 ****
     10 0
 S   6 1.00       0.000000000000
      0.5484671660D+04  0.1831074430D-02
      0.8252349460D+03  0.1395017220D-01
      0.1880469580D+03  0.6844507810D-01
      0.5296450000D+02  0.2327143360D+00
      0.1689757040D+02  0.4701928980D+00
      0.5799635340D+01  0.3585208530D+00
 SP   3 1.00       0.000000000000
      0.1553961625D+02 -0.1107775495D+00  0.7087426823D-01
      0.3599933586D+01 -0.1480262627D+00  0.3397528391D+00
      0.1013761750D+01  0.1130767015D+01  0.7271585773D+00
 SP   1 1.00       0.000000000000
      0.2700058226D+00  0.1000000000D+01  0.1000000000D+01
 D   1 1.00       0.000000000000
      0.8000000000D+00  0.1000000000D+01
 ****
     11 0
 S   3 1.00       0.000000000000
      0.1873113696D+02  0.3349460434D-01
      0.2825394365D+01  0.2347269535D+00
      0.6401216923D+00  0.8137573261D+00
 S   1 1.00       0.000000000000
      0.1612777588D+00  0.1000000000D+01
 P   1 1.00       0.000000000000
      0.1100000000D+01  0.1000000000D+01
 ****
     12 0
 S   6 1.00       0.000000000000
      0.5484671660D+04  0.1831074430D-02
      0.8252349460D+03  0.1395017220D-01
      0.1880469580D+03  0.6844507810D-01
      0.5296450000D+02  0.2327143360D+00
      0.1689757040D+02  0.4701928980D+00
      0.5799635340D+01  0.3585208530D+00
 SP   3 1.00       0.000000000000
      0.1553961625D+02 -0.1107775495D+00  0.7087426823D-01
      0.3599933586D+01 -0.1480262627D+00  0.3397528391D+00
      0.1013761750D+01  0.1130767015D+01  0.7271585773D+00
 SP   1 1.00       0.000000000000
      0.2700058226D+00  0.1000000000D+01  0.1000000000D+01
 D   1 1.00       0.000000000000
      0.8000000000D+00  0.1000000000D+01
 ****
     13 0
 S   3 1.00       0.000000000000
      0.1873113696D+02  0.3349460434D-01
      0.2825394365D+01  0.2347269535D+00
      0.6401216923D+00  0.8137573261D+00
 S   1 1.00       0.000000000000
      0.1612777588D+00  0.1000000000D+01
 P   1 1.00       0.000000000000
      0.1100000000D+01  0.1000000000D+01
 ****
     14 0
 S   6 1.00       0.000000000000
      0.5484671660D+04  0.1831074430D-02
      0.8252349460D+03  0.1395017220D-01
      0.1880469580D+03  0.6844507810D-01
      0.5296450000D+02  0.2327143360D+00
      0.1689757040D+02  0.4701928980D+00
      0.5799635340D+01  0.3585208530D+00
 SP   3 1.00       0.000000000000
      0.1553961625D+02 -0.1107775495D+00  0.7087426823D-01
      0.3599933586D+01 -0.1480262627D+00  0.3397528391D+00
      0.1013761750D+01  0.1130767015D+01  0.7271585773D+00
 SP   1 1.00       0.000000000000
      0.2700058226D+00  0.1000000000D+01  0.1000000000D+01
 D   1 1.00       0.000000000000
      0.8000000000D+00  0.1000000000D+01
 ****
     15 0
 S   6 1.00       0.000000000000
      0.5484671660D+04  0.1831074430D-02
      0.8252349460D+03  0.1395017220D-01
      0.1880469580D+03  0.6844507810D-01
      0.5296450000D+02  0.2327143360D+00
      0.1689757040D+02  0.4701928980D+00
      0.5799635340D+01  0.3585208530D+00
 SP   3 1.00       0.000000000000
      0.1553961625D+02 -0.1107775495D+00  0.7087426823D-01
      0.3599933586D+01 -0.1480262627D+00  0.3397528391D+00
      0.1013761750D+01  0.1130767015D+01  0.7271585773D+00
 SP   1 1.00       0.000000000000
      0.2700058226D+00  0.1000000000D+01  0.1000000000D+01
 D   1 1.00       0.000000000000
      0.8000000000D+00  0.1000000000D+01
 ****
     16 0
 S   6 1.00       0.000000000000
      0.3047524880D+04  0.1834737132D-02
      0.4573695180D+03  0.1403732281D-01
      0.1039486850D+03  0.6884262226D-01
      0.2921015530D+02  0.2321844432D+00
      0.9286662960D+01  0.4679413484D+00
      0.3163926960D+01  0.3623119853D+00
 SP   3 1.00       0.000000000000
      0.7868272350D+01 -0.1193324198D+00  0.6899906659D-01
      0.1881288540D+01 -0.1608541517D+00  0.3164239610D+00
      0.5442492580D+00  0.1143456438D+01  0.7443082909D+00
 SP   1 1.00       0.000000000000
      0.1687144782D+00  0.1000000000D+01  0.1000000000D+01
 D   1 1.00       0.000000000000
      0.8000000000D+00  0.1000000000D+01
 ****
     17 0
 S   3 1.00       0.000000000000
      0.1873113696D+02  0.3349460434D-01
      0.2825394365D+01  0.2347269535D+00
      0.6401216923D+00  0.8137573261D+00
 S   1 1.00       0.000000000000
      0.1612777588D+00  0.1000000000D+01
 P   1 1.00       0.000000000000
      0.1100000000D+01  0.1000000000D+01
 ****
     18 0
 S   3 1.00       0.000000000000
      0.1873113696D+02  0.3349460434D-01
      0.2825394365D+01  0.2347269535D+00
      0.6401216923D+00  0.8137573261D+00
 S   1 1.00       0.000000000000
      0.1612777588D+00  0.1000000000D+01
 P   1 1.00       0.000000000000
      0.1100000000D+01  0.1000000000D+01
 ****
     19 0
 S   6 1.00       0.000000000000
      0.3047524880D+04  0.1834737132D-02
      0.4573695180D+03  0.1403732281D-01
      0.1039486850D+03  0.6884262226D-01
      0.2921015530D+02  0.2321844432D+00
      0.9286662960D+01  0.4679413484D+00
      0.3163926960D+01  0.3623119853D+00
 SP   3 1.00       0.000000000000
      0.7868272350D+01 -0.1193324198D+00  0.6899906659D-01
      0.1881288540D+01 -0.1608541517D+00  0.3164239610D+00
      0.5442492580D+00  0.1143456438D+01  0.7443082909D+00
 SP   1 1.00       0.000000000000
      0.1687144782D+00  0.1000000000D+01  0.1000000000D+01
 D   1 1.00       0.000000000000
      0.8000000000D+00  0.1000000000D+01
 ****
     20 0
 S   6 1.00       0.000000000000
      0.3047524880D+04  0.1834737132D-02
      0.4573695180D+03  0.1403732281D-01
      0.1039486850D+03  0.6884262226D-01
      0.2921015530D+02  0.2321844432D+00
      0.9286662960D+01  0.4679413484D+00
      0.3163926960D+01  0.3623119853D+00
 SP   3 1.00       0.000000000000
      0.7868272350D+01 -0.1193324198D+00  0.6899906659D-01
      0.1881288540D+01 -0.1608541517D+00  0.3164239610D+00
      0.5442492580D+00  0.1143456438D+01  0.7443082909D+00
 SP   1 1.00       0.000000000000
      0.1687144782D+00  0.1000000000D+01  0.1000000000D+01
 D   1 1.00       0.000000000000
      0.8000000000D+00  0.1000000000D+01
 ****
     21 0
 S   6 1.00       0.000000000000
      0.3047524880D+04  0.1834737132D-02
      0.4573695180D+03  0.1403732281D-01
      0.1039486850D+03  0.6884262226D-01
      0.2921015530D+02  0.2321844432D+00
      0.9286662960D+01  0.4679413484D+00
      0.3163926960D+01  0.3623119853D+00
 SP   3 1.00       0.000000000000
      0.7868272350D+01 -0.1193324198D+00  0.6899906659D-01
      0.1881288540D+01 -0.1608541517D+00  0.3164239610D+00
      0.5442492580D+00  0.1143456438D+01  0.7443082909D+00
 SP   1 1.00       0.000000000000
      0.1687144782D+00  0.1000000000D+01  0.1000000000D+01
 D   1 1.00       0.000000000000
      0.8000000000D+00  0.1000000000D+01
 ****
     22 0
 S   6 1.00       0.000000000000
      0.3047524880D+04  0.1834737132D-02
      0.4573695180D+03  0.1403732281D-01
      0.1039486850D+03  0.6884262226D-01
      0.2921015530D+02  0.2321844432D+00
      0.9286662960D+01  0.4679413484D+00
      0.3163926960D+01  0.3623119853D+00
 SP   3 1.00       0.000000000000
      0.7868272350D+01 -0.1193324198D+00  0.6899906659D-01
      0.1881288540D+01 -0.1608541517D+00  0.3164239610D+00
      0.5442492580D+00  0.1143456438D+01  0.7443082909D+00
 SP   1 1.00       0.000000000000
      0.1687144782D+00  0.1000000000D+01  0.1000000000D+01
 D   1 1.00       0.000000000000
      0.8000000000D+00  0.1000000000D+01
 ****
     23 0
 S   3 1.00       0.000000000000
      0.1873113696D+02  0.3349460434D-01
      0.2825394365D+01  0.2347269535D+00
      0.6401216923D+00  0.8137573261D+00
 S   1 1.00       0.000000000000
      0.1612777588D+00  0.1000000000D+01
 P   1 1.00       0.000000000000
      0.1100000000D+01  0.1000000000D+01
 ****
     24 0
 S   6 1.00       0.000000000000
      0.4173511460D+04  0.1834772160D-02
      0.6274579110D+03  0.1399462700D-01
      0.1429020930D+03  0.6858655181D-01
      0.4023432930D+02  0.2322408730D+00
      0.1282021290D+02  0.4690699481D+00
      0.4390437010D+01  0.3604551991D+00
 SP   3 1.00       0.000000000000
      0.1162636186D+02 -0.1149611817D+00  0.6757974388D-01
      0.2716279807D+01 -0.1691174786D+00  0.3239072959D+00
      0.7722183966D+00  0.1145851947D+01  0.7408951398D+00
 SP   1 1.00       0.000000000000
      0.2120314975D+00  0.1000000000D+01  0.1000000000D+01
 D   1 1.00       0.000000000000
      0.8000000000D+00  0.1000000000D+01
 ****
     25 0
 S   3 1.00       0.000000000000
      0.1873113696D+02  0.3349460434D-01
      0.2825394365D+01  0.2347269535D+00
      0.6401216923D+00  0.8137573261D+00
 S   1 1.00       0.000000000000
      0.1612777588D+00  0.1000000000D+01
 P   1 1.00       0.000000000000
      0.1100000000D+01  0.1000000000D+01
 ****
     26 0
 S   6 1.00       0.000000000000
      0.3047524880D+04  0.1834737132D-02
      0.4573695180D+03  0.1403732281D-01
      0.1039486850D+03  0.6884262226D-01
      0.2921015530D+02  0.2321844432D+00
      0.9286662960D+01  0.4679413484D+00
      0.3163926960D+01  0.3623119853D+00
 SP   3 1.00       0.000000000000
      0.7868272350D+01 -0.1193324198D+00  0.6899906659D-01
      0.1881288540D+01 -0.1608541517D+00  0.3164239610D+00
      0.5442492580D+00  0.1143456438D+01  0.7443082909D+00
 SP   1 1.00       0.000000000000
      0.1687144782D+00  0.1000000000D+01  0.1000000000D+01
 D   1 1.00       0.000000000000
      0.8000000000D+00  0.1000000000D+01
 ****
     27 0
 S   3 1.00       0.000000000000
      0.1873113696D+02  0.3349460434D-01
      0.2825394365D+01  0.2347269535D+00
      0.6401216923D+00  0.8137573261D+00
 S   1 1.00       0.000000000000
      0.1612777588D+00  0.1000000000D+01
 P   1 1.00       0.000000000000
      0.1100000000D+01  0.1000000000D+01
 ****
     28 0
 S   3 1.00       0.000000000000
      0.1873113696D+02  0.3349460434D-01
      0.2825394365D+01  0.2347269535D+00
      0.6401216923D+00  0.8137573261D+00
 S   1 1.00       0.000000000000
      0.1612777588D+00  0.1000000000D+01
 P   1 1.00       0.000000000000
      0.1100000000D+01  0.1000000000D+01
 ****

   318 basis functions,   601 primitive gaussians,   318 cartesian basis functions
    73 alpha electrons       73 beta electrons
       nuclear repulsion energy      1686.2823314353 Hartrees.
 NAtoms=   28 NActive=   28 NUniq=   28 SFac= 1.00D+00 NAtFMM=   60 NAOKFM=F Big=F
 ------------------------------------------------------------------------------
 Polarizable Continuum Model (PCM)
 =================================
 Model                : PCM.
 Atomic radii         : UFF (Universal Force Field).
 Polarization charges : Total charges.
 Charge compensation  : None.
 Solution method      : On-the-fly selection.
 Cavity type          : Scaled VdW (van der Waals Surface) (Alpha=1.100).
 Cavity algorithm     : GePol (No added spheres)
                        Default sphere list used, NSphG=   28.
                        Lebedev-Laikov grids with approx.  5.0 points / Ang**2.
                        Smoothing algorithm: York/Karplus (Gamma=1.0000).
                        Polarization charges: spherical gaussians, with
                                              point-specific exponents (IZeta= 3).
                        Self-potential: point-specific (ISelfS= 7).
                        Self-field    : sphere-specific E.n sum rule (ISelfD= 2).
 Solvent              : Water, Eps=  78.355300 Eps(inf)=   1.777849
 ------------------------------------------------------------------------------
 ExpMin= 9.98D-02 ExpMax= 1.94D+04 ExpMxC= 2.91D+03 IAcc=3 IRadAn=         5 AccDes= 0.00D+00
 Harris functional with IExCor=  402 and IRadAn=       5 diagonalized for initial guess.
 HarFok:  IExCor=  402 AccDes= 0.00D+00 IRadAn=         5 IDoV= 1 UseB2=F ITyADJ=14
 ICtDFT=  3500011 ScaDFX=  1.000000  1.000000  1.000000  1.000000
 FoFCou: FMM=F IPFlag=           0 FMFlag=      100000 FMFlg1=           0
         NFxFlg=           0 DoJE=T BraDBF=F KetDBF=T FulRan=T
         wScrn=  0.000000 ICntrl=       500 IOpCl=  0 I1Cent=   200000004 NGrid=           0
         NMat0=    1 NMatS0=      1 NMatT0=    0 NMatD0=    1 NMtDS0=    0 NMtDT0=    0
 Petite list used in FoFCou.
 Inv3:  Mode=1 IEnd=    15377088.
 Iteration    1 A*A^-1 deviation from unit magnitude is 8.77D-15 for   1920.
 Iteration    1 A*A^-1 deviation from orthogonality  is 4.11D-15 for   1943    314.
 Iteration    1 A^-1*A deviation from unit magnitude is 8.88D-15 for   1920.
 Iteration    1 A^-1*A deviation from orthogonality  is 2.89D-15 for   1986     83.
 Error on total polarization charges =  0.00641
 SCF Done:  E(RB3LYP) =  -1537.56296862     A.U. after   13 cycles
            NFock= 13  Conv=0.51D-08     -V/T= 2.0068

 **********************************************************************

            Population analysis using the SCF density.

 **********************************************************************

 Orbital symmetries:
       Occupied  (A) (A) (A) (A) (A) (A) (A) (A) (A) (A) (A) (A)
                 (A) (A) (A) (A) (A) (A) (A) (A) (A) (A) (A) (A)
                 (A) (A) (A) (A) (A) (A) (A) (A) (A) (A) (A) (A)
                 (A) (A) (A) (A) (A) (A) (A) (A) (A) (A) (A) (A)
                 (A) (A) (A) (A) (A) (A) (A) (A) (A) (A) (A) (A)
                 (A) (A) (A) (A) (A) (A) (A) (A) (A) (A) (A) (A)
                 (A)
       Virtual   (A) (A) (A) (A) (A) (A) (A) (A) (A) (A) (A) (A)
                 (A) (A) (A) (A) (A) (A) (A) (A) (A) (A) (A) (A)
                 (A) (A) (A) (A) (A) (A) (A) (A) (A) (A) (A) (A)
                 (A) (A) (A) (A) (A) (A) (A) (A) (A) (A) (A) (A)
                 (A) (A) (A) (A) (A) (A) (A) (A) (A) (A) (A) (A)
                 (A) (A) (A) (A) (A) (A) (A) (A) (A) (A) (A) (A)
                 (A) (A) (A) (A) (A) (A) (A) (A) (A) (A) (A) (A)
                 (A) (A) (A) (A) (A) (A) (A) (A) (A) (A) (A) (A)
                 (A) (A) (A) (A) (A) (A) (A) (A) (A) (A) (A) (A)
                 (A) (A) (A) (A) (A) (A) (A) (A) (A) (A) (A) (A)
                 (A) (A) (A) (A) (A) (A) (A) (A) (A) (A) (A) (A)
                 (A) (A) (A) (A) (A) (A) (A) (A) (A) (A) (A) (A)
                 (A) (A) (A) (A) (A) (A) (A) (A) (A) (A) (A) (A)
                 (A) (A) (A) (A) (A) (A) (A) (A) (A) (A) (A) (A)
                 (A) (A) (A) (A) (A) (A) (A) (A) (A) (A) (A) (A)
                 (A) (A) (A) (A) (A) (A) (A) (A) (A) (A) (A) (A)
                 (A) (A) (A) (A) (A) (A) (A) (A) (A) (A) (A) (A)
                 (A) (A) (A) (A) (A) (A) (A) (A) (A) (A) (A) (A)
                 (A) (A) (A) (A) (A) (A) (A) (A) (A) (A) (A) (A)
                 (A) (A) (A) (A) (A) (A) (A) (A) (A) (A) (A) (A)
                 (A) (A) (A) (A) (A)
 The electronic state is 1-A.
 Alpha  occ. eigenvalues --  -77.23742 -77.23303 -19.20099 -19.20047 -19.19828
 Alpha  occ. eigenvalues --  -19.19467 -19.18188 -19.13015 -19.12606 -14.33999
 Alpha  occ. eigenvalues --  -10.28546 -10.22859 -10.22848 -10.21733 -10.21552
 Alpha  occ. eigenvalues --  -10.21106 -10.20316  -6.68637  -6.68204  -4.85103
 Alpha  occ. eigenvalues --   -4.84938  -4.84734  -4.84659  -4.84508  -4.84306
 Alpha  occ. eigenvalues --   -1.09730  -1.08954  -1.05351  -1.04441  -1.04127
 Alpha  occ. eigenvalues --   -0.97951  -0.97420  -0.94709  -0.83100  -0.78996
 Alpha  occ. eigenvalues --   -0.75571  -0.68718  -0.65964  -0.63635  -0.62774
 Alpha  occ. eigenvalues --   -0.59607  -0.57982  -0.56353  -0.54169  -0.52501
 Alpha  occ. eigenvalues --   -0.50908  -0.49032  -0.47576  -0.46970  -0.46009
 Alpha  occ. eigenvalues --   -0.44252  -0.43993  -0.42681  -0.41805  -0.41637
 Alpha  occ. eigenvalues --   -0.40789  -0.40143  -0.39784  -0.39224  -0.38622
 Alpha  occ. eigenvalues --   -0.37554  -0.37470  -0.36604  -0.35438  -0.35045
 Alpha  occ. eigenvalues --   -0.32770  -0.31337  -0.31046  -0.30729  -0.28987
 Alpha  occ. eigenvalues --   -0.27577  -0.26412  -0.26373
 Alpha virt. eigenvalues --   -0.03367  -0.02124   0.02787   0.03527   0.05148
 Alpha virt. eigenvalues --    0.05320   0.08192   0.09813   0.10515   0.10782
 Alpha virt. eigenvalues --    0.11817   0.12073   0.13215   0.13922   0.14423
 Alpha virt. eigenvalues --    0.14592   0.15473   0.16130   0.17873   0.18354
 Alpha virt. eigenvalues --    0.19078   0.20150   0.22526   0.24239   0.24422
 Alpha virt. eigenvalues --    0.25808   0.30793   0.32428   0.32459   0.33789
 Alpha virt. eigenvalues --    0.35706   0.36938   0.37947   0.39021   0.39628
 Alpha virt. eigenvalues --    0.41594   0.43907   0.44639   0.45786   0.49112
 Alpha virt. eigenvalues --    0.51451   0.53555   0.54178   0.55212   0.56543
 Alpha virt. eigenvalues --    0.57768   0.58579   0.59234   0.59766   0.60389
 Alpha virt. eigenvalues --    0.63682   0.64299   0.65445   0.65819   0.67979
 Alpha virt. eigenvalues --    0.71921   0.73460   0.74038   0.74773   0.75564
 Alpha virt. eigenvalues --    0.76115   0.77330   0.78545   0.79700   0.80906
 Alpha virt. eigenvalues --    0.81319   0.82520   0.83006   0.83895   0.84601
 Alpha virt. eigenvalues --    0.85938   0.86600   0.87616   0.87898   0.89270
 Alpha virt. eigenvalues --    0.89715   0.90499   0.91525   0.92324   0.92700
 Alpha virt. eigenvalues --    0.95708   0.96203   0.96848   0.96967   0.98679
 Alpha virt. eigenvalues --    0.99111   0.99605   1.02245   1.02707   1.03882
 Alpha virt. eigenvalues --    1.04842   1.05381   1.07057   1.08423   1.09792
 Alpha virt. eigenvalues --    1.10652   1.12098   1.13750   1.15507   1.16452
 Alpha virt. eigenvalues --    1.18668   1.19470   1.19859   1.20296   1.22613
 Alpha virt. eigenvalues --    1.24928   1.25685   1.28932   1.30393   1.32175
 Alpha virt. eigenvalues --    1.34667   1.36808   1.37913   1.39673   1.41961
 Alpha virt. eigenvalues --    1.42984   1.45210   1.45679   1.46060   1.47741
 Alpha virt. eigenvalues --    1.49087   1.52591   1.54679   1.55809   1.57248
 Alpha virt. eigenvalues --    1.58269   1.60063   1.60812   1.61340   1.67511
 Alpha virt. eigenvalues --    1.68091   1.69718   1.70445   1.73465   1.74812
 Alpha virt. eigenvalues --    1.76323   1.76871   1.77316   1.79770   1.80865
 Alpha virt. eigenvalues --    1.82277   1.83172   1.83446   1.84019   1.85650
 Alpha virt. eigenvalues --    1.85893   1.87869   1.89788   1.90198   1.91227
 Alpha virt. eigenvalues --    1.94071   1.95129   1.95998   1.97387   1.98879
 Alpha virt. eigenvalues --    2.00630   2.03099   2.05764   2.08317   2.10213
 Alpha virt. eigenvalues --    2.10625   2.12475   2.12970   2.13906   2.17813
 Alpha virt. eigenvalues --    2.20726   2.23040   2.24239   2.26973   2.28981
 Alpha virt. eigenvalues --    2.29739   2.31527   2.31999   2.32702   2.33363
 Alpha virt. eigenvalues --    2.34376   2.36636   2.38521   2.38758   2.39691
 Alpha virt. eigenvalues --    2.42737   2.43590   2.44550   2.47396   2.47754
 Alpha virt. eigenvalues --    2.49061   2.51407   2.52015   2.54308   2.59040
 Alpha virt. eigenvalues --    2.60053   2.60302   2.60700   2.60939   2.61452
 Alpha virt. eigenvalues --    2.63504   2.63807   2.65231   2.66783   2.67658
 Alpha virt. eigenvalues --    2.68954   2.69868   2.70764   2.72525   2.72914
 Alpha virt. eigenvalues --    2.73266   2.79836   2.80737   2.82160   2.84480
 Alpha virt. eigenvalues --    2.86771   2.91253   2.98342   2.99578   3.06009
 Alpha virt. eigenvalues --    3.18513   3.23238   3.26750   3.30258   3.33407
 Alpha virt. eigenvalues --    3.34465   3.35605   3.38907   3.40715   3.44682
 Alpha virt. eigenvalues --    3.45078   3.46664   3.50611   3.55157   3.79173
 Alpha virt. eigenvalues --    3.86044   3.89115   3.98935   4.02933   4.04893
 Alpha virt. eigenvalues --    4.10689   4.17666   4.20057   4.23021   4.31250
 Alpha virt. eigenvalues --    4.33964   4.39279   4.47442   4.64218   4.75966
     Molecular Orbital Coefficients:
                           1         2         3         4         5
                           O         O         O         O         O
     Eigenvalues --   -77.23742 -77.23303 -19.20099 -19.20047 -19.19828
   1 1   C  1S         -0.00004  -0.00003  -0.00002  -0.00003  -0.00005
   2        2S         -0.00003   0.00001  -0.00014  -0.00018  -0.00023
   3        2PX        -0.00003   0.00001  -0.00002  -0.00002  -0.00004
   4        2PY        -0.00003   0.00004   0.00003  -0.00002   0.00005
   5        2PZ        -0.00000  -0.00000  -0.00006   0.00007  -0.00001
   6        3S          0.00092   0.00058   0.00122   0.00109   0.00177
   7        3PX        -0.00038   0.00010  -0.00042  -0.00052   0.00019
   8        3PY        -0.00016   0.00050  -0.00069  -0.00003   0.00043
   9        3PZ         0.00012  -0.00001   0.00032  -0.00014   0.00069
  10        4XX        -0.00013  -0.00008   0.00003   0.00004  -0.00002
  11        4YY        -0.00008  -0.00014  -0.00002  -0.00000  -0.00000
  12        4ZZ        -0.00008  -0.00006   0.00000  -0.00003  -0.00009
  13        4XY        -0.00002  -0.00001  -0.00002   0.00004  -0.00001
  14        4XZ         0.00002  -0.00001  -0.00002  -0.00001   0.00002
  15        4YZ         0.00002  -0.00001  -0.00001  -0.00001  -0.00001
  16 2   O  1S          0.00000   0.00000   0.00001   0.00000   0.00001
  17        2S         -0.00000   0.00001  -0.00007  -0.00018  -0.00026
  18        2PX         0.00001   0.00001  -0.00002   0.00006   0.00001
  19        2PY        -0.00001  -0.00001   0.00003   0.00004  -0.00004
  20        2PZ        -0.00001  -0.00001   0.00003  -0.00004  -0.00002
  21        3S         -0.00013  -0.00015   0.00041   0.00056   0.00114
  22        3PX         0.00004  -0.00008  -0.00015  -0.00020  -0.00013
  23        3PY         0.00004  -0.00009  -0.00003  -0.00018   0.00028
  24        3PZ        -0.00011  -0.00008  -0.00021   0.00020   0.00018
  25        4XX         0.00003  -0.00002   0.00001  -0.00011  -0.00019
  26        4YY        -0.00003   0.00001  -0.00003  -0.00016  -0.00015
  27        4ZZ        -0.00001   0.00000  -0.00008  -0.00013  -0.00017
  28        4XY         0.00000  -0.00001   0.00001   0.00004  -0.00002
  29        4XZ         0.00001  -0.00001   0.00002  -0.00003  -0.00001
  30        4YZ         0.00001  -0.00001   0.00000  -0.00002   0.00002
  31 3   H  1S         -0.00002  -0.00001   0.00003  -0.00007  -0.00004
  32        2S         -0.00018  -0.00014  -0.00046   0.00030   0.00007
  33        3PX         0.00002  -0.00001   0.00003   0.00003  -0.00002
  34        3PY         0.00000  -0.00003   0.00004  -0.00001   0.00001
  35        3PZ        -0.00004  -0.00003  -0.00007   0.00002   0.00001
  36 4   P  1S          0.99625   0.00040   0.00001   0.00001  -0.00000
  37        2S          0.01417  -0.00000  -0.00001  -0.00000   0.00001
  38        2PX         0.00001   0.00001   0.00002  -0.00001  -0.00000
  39        2PY        -0.00002   0.00000  -0.00002   0.00006  -0.00002
  40        2PZ        -0.00003   0.00000   0.00006   0.00001   0.00002
  41        3S         -0.02723   0.00005   0.00028   0.00034  -0.00003
  42        3PX        -0.00014  -0.00011   0.00007   0.00011   0.00002
  43        3PY        -0.00001  -0.00003   0.00011  -0.00014   0.00007
  44        3PZ         0.00005  -0.00000  -0.00019  -0.00010  -0.00020
  45        4S          0.00294   0.00017  -0.00333  -0.00325  -0.00035
  46        4PX         0.00015   0.00006  -0.00041  -0.00046   0.00005
  47        4PY         0.00014  -0.00010  -0.00122   0.00182  -0.00032
  48        4PZ        -0.00001  -0.00010   0.00167   0.00174   0.00042
  49        5XX         0.00941  -0.00006   0.00000  -0.00002  -0.00002
  50        5YY         0.00947  -0.00005   0.00000   0.00028   0.00010
  51        5ZZ         0.00947  -0.00001   0.00017  -0.00013   0.00001
  52        5XY        -0.00003  -0.00005   0.00001  -0.00000   0.00002
  53        5XZ         0.00002   0.00002   0.00022  -0.00003  -0.00005
  54        5YZ         0.00002   0.00002  -0.00011   0.00001  -0.00007
  55 5   P  1S         -0.00039   0.99625  -0.00000   0.00000   0.00001
  56        2S         -0.00001   0.01417  -0.00007   0.00003  -0.00003
  57        2PX        -0.00001  -0.00000   0.00000  -0.00000   0.00005
  58        2PY        -0.00001  -0.00001  -0.00000   0.00000  -0.00001
  59        2PZ        -0.00000  -0.00004   0.00000  -0.00000   0.00004
  60        3S          0.00013  -0.02726  -0.00024   0.00015   0.00022
  61        3PX         0.00005  -0.00001   0.00003   0.00000  -0.00013
  62        3PY         0.00009   0.00016   0.00007  -0.00004  -0.00009
  63        3PZ         0.00004   0.00003   0.00002   0.00003  -0.00014
  64        4S         -0.00015   0.00304   0.00166  -0.00071  -0.00291
  65        4PX         0.00009   0.00009  -0.00060   0.00051   0.00151
  66        4PY         0.00003  -0.00024  -0.00057   0.00021   0.00072
  67        4PZ        -0.00012   0.00015  -0.00009  -0.00004   0.00131
  68        5XX        -0.00005   0.00947  -0.00004   0.00000   0.00014
  69        5YY        -0.00009   0.00941  -0.00007   0.00000  -0.00003
  70        5ZZ        -0.00004   0.00951  -0.00003  -0.00001  -0.00001
  71        5XY        -0.00004  -0.00001   0.00003  -0.00001  -0.00009
  72        5XZ        -0.00000  -0.00001   0.00001  -0.00002   0.00017
  73        5YZ         0.00001   0.00000   0.00002  -0.00001  -0.00008
  74 6   O  1S         -0.00001   0.00002   0.99268  -0.00155   0.00074
  75        2S         -0.00005   0.00006   0.02578  -0.00028  -0.00009
  76        2PX        -0.00002   0.00002  -0.00039  -0.00004   0.00000
  77        2PY         0.00004   0.00001  -0.00070   0.00001   0.00003
  78        2PZ        -0.00008   0.00001   0.00045   0.00002  -0.00001
  79        3S          0.00073  -0.00025   0.01274   0.00146   0.00050
  80        3PX         0.00001  -0.00014   0.00058   0.00044   0.00001
  81        3PY        -0.00020  -0.00004   0.00018  -0.00015  -0.00007
  82        3PZ         0.00029  -0.00008   0.00031   0.00017   0.00006
  83        4XX        -0.00006   0.00006  -0.00826  -0.00010   0.00002
  84        4YY        -0.00001   0.00006  -0.00826  -0.00020  -0.00001
  85        4ZZ        -0.00021   0.00005  -0.00828  -0.00013  -0.00004
  86        4XY         0.00007   0.00001  -0.00002  -0.00003   0.00005
  87        4XZ        -0.00012  -0.00001  -0.00003   0.00000  -0.00001
  88        4YZ         0.00005   0.00001   0.00003   0.00003   0.00001
  89 7   H  1S         -0.00010  -0.00004   0.00044   0.00003  -0.00011
  90        2S         -0.00021  -0.00005  -0.00093   0.00038   0.00002
  91        3PX        -0.00001  -0.00002  -0.00005   0.00003  -0.00004
  92        3PY        -0.00000  -0.00002  -0.00000  -0.00000  -0.00002
  93        3PZ        -0.00000  -0.00000  -0.00004   0.00004  -0.00001
  94 8   O  1S         -0.00001   0.00000   0.00147   0.99268  -0.00018
  95        2S         -0.00006   0.00001  -0.00002   0.02572  -0.00001
  96        2PX         0.00001  -0.00000  -0.00002  -0.00003  -0.00001
  97        2PY        -0.00008  -0.00000   0.00003   0.00034   0.00000
  98        2PZ        -0.00003  -0.00000   0.00002   0.00089   0.00001
  99        3S          0.00081  -0.00010   0.00050   0.01297   0.00003
 100        3PX        -0.00006   0.00001   0.00008   0.00013   0.00003
 101        3PY         0.00030  -0.00001   0.00005   0.00058  -0.00001
 102        3PZ         0.00021   0.00002  -0.00016  -0.00053  -0.00006
 103        4XX        -0.00003   0.00001  -0.00006  -0.00825  -0.00000
 104        4YY        -0.00028   0.00001  -0.00008  -0.00831  -0.00002
 105        4ZZ         0.00004   0.00000  -0.00011  -0.00829  -0.00001
 106        4XY        -0.00001   0.00000   0.00004   0.00001   0.00001
 107        4XZ        -0.00000   0.00000  -0.00004  -0.00000  -0.00000
 108        4YZ        -0.00002   0.00000   0.00003  -0.00002  -0.00001
 109 9   H  1S         -0.00012  -0.00000   0.00008   0.00044   0.00003
 110        2S         -0.00022  -0.00001  -0.00029  -0.00089  -0.00011
 111        3PX         0.00001  -0.00000   0.00001  -0.00001  -0.00000
 112        3PY        -0.00001  -0.00000  -0.00002  -0.00006  -0.00001
 113        3PZ         0.00002  -0.00000  -0.00003   0.00003  -0.00000
 114 10  O  1S          0.00001  -0.00001  -0.00073   0.00016   0.99268
 115        2S          0.00004  -0.00005   0.00006  -0.00010   0.02576
 116        2PX        -0.00000  -0.00008   0.00000  -0.00000   0.00059
 117        2PY        -0.00001  -0.00000   0.00000   0.00000   0.00071
 118        2PZ        -0.00001  -0.00005  -0.00001  -0.00001   0.00021
 119        3S         -0.00014   0.00078  -0.00057   0.00052   0.01281
 120        3PX         0.00003   0.00031  -0.00012   0.00006   0.00025
 121        3PY         0.00008   0.00011   0.00002  -0.00008  -0.00072
 122        3PZ         0.00001   0.00018  -0.00003   0.00009   0.00023
 123        4XX         0.00003  -0.00018   0.00009  -0.00007  -0.00829
 124        4YY         0.00000   0.00001   0.00012  -0.00006  -0.00832
 125        4ZZ         0.00003  -0.00010   0.00007  -0.00006  -0.00827
 126        4XY        -0.00001   0.00009   0.00002  -0.00000  -0.00001
 127        4XZ         0.00001  -0.00012  -0.00000   0.00001  -0.00003
 128        4YZ         0.00001   0.00005  -0.00002   0.00000   0.00001
 129 11  H  1S         -0.00000  -0.00011  -0.00000  -0.00001   0.00048
 130        2S         -0.00000  -0.00018  -0.00005   0.00005  -0.00085
 131        3PX        -0.00000  -0.00000   0.00000  -0.00000  -0.00003
 132        3PY        -0.00001   0.00001   0.00003  -0.00001   0.00002
 133        3PZ        -0.00000  -0.00001  -0.00001  -0.00000  -0.00003
 134 12  O  1S          0.00000  -0.00000  -0.00004  -0.00000   0.00040
 135        2S          0.00000  -0.00002   0.00004   0.00000  -0.00013
 136        2PX        -0.00000   0.00005  -0.00001   0.00000  -0.00001
 137        2PY         0.00000   0.00001  -0.00002   0.00001   0.00003
 138        2PZ        -0.00000  -0.00007  -0.00001   0.00001   0.00004
 139        3S         -0.00003   0.00063  -0.00022  -0.00002   0.00088
 140        3PX         0.00001  -0.00013   0.00009  -0.00002  -0.00024
 141        3PY        -0.00001  -0.00001   0.00009  -0.00004  -0.00019
 142        3PZ         0.00001   0.00029   0.00002  -0.00003  -0.00015
 143        4XX         0.00001  -0.00010   0.00002   0.00001  -0.00021
 144        4YY         0.00000  -0.00002   0.00003   0.00000  -0.00007
 145        4ZZ         0.00000  -0.00007   0.00003  -0.00001  -0.00013
 146        4XY         0.00000  -0.00006  -0.00000   0.00000   0.00005
 147        4XZ        -0.00000   0.00017  -0.00000   0.00000  -0.00004
 148        4YZ        -0.00000   0.00005   0.00000  -0.00000   0.00000
 149 13  H  1S         -0.00000  -0.00009  -0.00002   0.00001   0.00011
 150        2S         -0.00002  -0.00021   0.00005  -0.00008  -0.00020
 151        3PX         0.00000   0.00001   0.00000   0.00001  -0.00003
 152        3PY         0.00000  -0.00001  -0.00000   0.00001   0.00000
 153        3PZ         0.00000   0.00000   0.00000  -0.00000  -0.00005
 154 14  O  1S          0.00001   0.00002   0.00002  -0.00001  -0.00002
 155        2S          0.00001   0.00000   0.00011  -0.00004   0.00004
 156        2PX        -0.00001   0.00002  -0.00003   0.00002   0.00006
 157        2PY        -0.00002   0.00004  -0.00002  -0.00000   0.00002
 158        2PZ        -0.00000   0.00018  -0.00001   0.00001  -0.00003
 159        3S         -0.00003   0.00024  -0.00057   0.00020  -0.00020
 160        3PX         0.00003  -0.00004   0.00015  -0.00010  -0.00034
 161        3PY         0.00005  -0.00004   0.00013  -0.00002  -0.00012
 162        3PZ         0.00003  -0.00036   0.00012  -0.00005  -0.00011
 163        4XX         0.00002   0.00010   0.00008  -0.00002   0.00006
 164        4YY         0.00002   0.00007   0.00009  -0.00002   0.00006
 165        4ZZ         0.00001  -0.00013   0.00008  -0.00002   0.00009
 166        4XY        -0.00001  -0.00001  -0.00000  -0.00001   0.00004
 167        4XZ        -0.00000  -0.00003  -0.00002   0.00001   0.00004
 168        4YZ        -0.00001  -0.00010  -0.00001   0.00000   0.00002
 169 15  O  1S          0.00002   0.00001  -0.00004  -0.00001  -0.00001
 170        2S         -0.00003   0.00005  -0.00008   0.00013  -0.00011
 171        2PX        -0.00005   0.00002   0.00000   0.00001  -0.00001
 172        2PY         0.00009   0.00001  -0.00006   0.00002  -0.00005
 173        2PZ         0.00016  -0.00000   0.00002  -0.00001   0.00005
 174        3S          0.00040  -0.00018   0.00050  -0.00069   0.00047
 175        3PX         0.00008  -0.00008   0.00004   0.00000   0.00008
 176        3PY        -0.00021  -0.00003   0.00022  -0.00022   0.00017
 177        3PZ        -0.00032   0.00005  -0.00041  -0.00008  -0.00025
 178        4XX         0.00004   0.00003  -0.00004   0.00013  -0.00011
 179        4YY         0.00004   0.00004  -0.00004   0.00011  -0.00010
 180        4ZZ        -0.00010   0.00003   0.00004   0.00013  -0.00006
 181        4XY         0.00004  -0.00002   0.00002  -0.00001   0.00001
 182        4XZ         0.00009   0.00001  -0.00002  -0.00000  -0.00003
 183        4YZ        -0.00010  -0.00000   0.00000   0.00004  -0.00000
 184 16  C  1S         -0.00001  -0.00002   0.00002  -0.00001   0.00002
 185        2S         -0.00001  -0.00005   0.00008  -0.00007   0.00011
 186        2PX         0.00004   0.00001   0.00001  -0.00002  -0.00000
 187        2PY        -0.00001  -0.00003   0.00001  -0.00001   0.00000
 188        2PZ         0.00000   0.00002   0.00003  -0.00003   0.00002
 189        3S         -0.00025   0.00036  -0.00060   0.00038  -0.00073
 190        3PX        -0.00011   0.00017   0.00028  -0.00009   0.00037
 191        3PY        -0.00011  -0.00018  -0.00023   0.00003  -0.00045
 192        3PZ         0.00024  -0.00017   0.00009   0.00015   0.00001
 193        4XX        -0.00004  -0.00003  -0.00000   0.00003   0.00002
 194        4YY        -0.00002  -0.00005   0.00003   0.00001   0.00002
 195        4ZZ        -0.00002  -0.00004   0.00001  -0.00000   0.00003
 196        4XY         0.00001   0.00000   0.00002   0.00002   0.00003
 197        4XZ        -0.00001  -0.00001  -0.00002   0.00000  -0.00001
 198        4YZ        -0.00000   0.00001  -0.00000   0.00000   0.00002
 199 17  H  1S          0.00001  -0.00003   0.00000   0.00005   0.00000
 200        2S         -0.00021  -0.00008  -0.00001  -0.00006  -0.00006
 201        3PX         0.00004  -0.00001  -0.00001  -0.00001  -0.00002
 202        3PY        -0.00002   0.00001  -0.00000  -0.00002   0.00000
 203        3PZ        -0.00000   0.00001   0.00000  -0.00002  -0.00001
 204 18  H  1S         -0.00000   0.00002   0.00006  -0.00005   0.00008
 205        2S         -0.00025  -0.00011  -0.00004  -0.00007   0.00006
 206        3PX         0.00004   0.00000  -0.00001  -0.00001  -0.00001
 207        3PY         0.00001  -0.00003   0.00000  -0.00000   0.00001
 208        3PZ         0.00002   0.00002   0.00000  -0.00000   0.00000
 209 19  C  1S         -0.00001   0.00001   0.00000  -0.00000   0.00000
 210        2S         -0.00002   0.00008   0.00001  -0.00000   0.00001
 211        2PX         0.00003   0.00000   0.00000   0.00001  -0.00001
 212        2PY         0.00000  -0.00003   0.00000   0.00000  -0.00001
 213        2PZ         0.00000  -0.00003   0.00000   0.00001   0.00000
 214        3S         -0.00003  -0.00039  -0.00013   0.00003  -0.00010
 215        3PX        -0.00049   0.00029  -0.00010  -0.00003   0.00003
 216        3PY        -0.00012   0.00039   0.00006  -0.00006   0.00033
 217        3PZ        -0.00010   0.00053  -0.00000  -0.00020   0.00020
 218        4XX         0.00000   0.00000   0.00001  -0.00001   0.00001
 219        4YY        -0.00002   0.00001   0.00000  -0.00001   0.00001
 220        4ZZ        -0.00002   0.00001   0.00001  -0.00001   0.00001
 221        4XY        -0.00000   0.00004  -0.00001  -0.00001  -0.00001
 222        4XZ        -0.00000   0.00001   0.00000   0.00000   0.00001
 223        4YZ        -0.00000   0.00000   0.00000  -0.00000   0.00001
 224 20  C  1S         -0.00000   0.00000  -0.00000   0.00000  -0.00001
 225        2S         -0.00001  -0.00002  -0.00001   0.00001  -0.00002
 226        2PX         0.00000  -0.00002   0.00000   0.00001   0.00000
 227        2PY         0.00000   0.00002  -0.00000   0.00000  -0.00001
 228        2PZ        -0.00000   0.00001  -0.00000  -0.00000   0.00000
 229        3S          0.00007   0.00036   0.00010  -0.00020   0.00030
 230        3PX         0.00010  -0.00024   0.00001  -0.00000  -0.00010
 231        3PY         0.00006   0.00003   0.00003  -0.00005   0.00007
 232        3PZ         0.00010   0.00021   0.00006  -0.00003   0.00016
 233        4XX        -0.00001   0.00003  -0.00000  -0.00001  -0.00000
 234        4YY        -0.00000   0.00001  -0.00001  -0.00000  -0.00002
 235        4ZZ         0.00001   0.00002   0.00000   0.00001  -0.00000
 236        4XY        -0.00000  -0.00000   0.00000  -0.00000   0.00000
 237        4XZ         0.00000  -0.00001   0.00000   0.00000  -0.00000
 238        4YZ         0.00001   0.00000   0.00000  -0.00000   0.00000
 239 21  C  1S         -0.00000   0.00001   0.00000  -0.00000   0.00001
 240        2S         -0.00002   0.00005   0.00000  -0.00001   0.00003
 241        2PX        -0.00000  -0.00000  -0.00000  -0.00001  -0.00001
 242        2PY        -0.00000   0.00002   0.00000  -0.00000   0.00002
 243        2PZ        -0.00000   0.00000  -0.00001  -0.00000  -0.00000
 244        3S          0.00024  -0.00049   0.00001   0.00011  -0.00033
 245        3PX        -0.00005   0.00023   0.00002  -0.00003   0.00012
 246        3PY        -0.00016   0.00011  -0.00004  -0.00007  -0.00003
 247        3PZ        -0.00020   0.00019  -0.00000  -0.00003   0.00013
 248        4XX        -0.00001  -0.00000   0.00000   0.00001   0.00001
 249        4YY         0.00000   0.00001   0.00001   0.00000   0.00002
 250        4ZZ        -0.00000   0.00001   0.00000  -0.00000   0.00001
 251        4XY         0.00000  -0.00000  -0.00000   0.00000  -0.00000
 252        4XZ         0.00001  -0.00001  -0.00000   0.00000  -0.00001
 253        4YZ         0.00001  -0.00001   0.00000   0.00000  -0.00000
 254 22  C  1S         -0.00000   0.00000   0.00000  -0.00000   0.00000
 255        2S         -0.00001   0.00000   0.00000  -0.00001   0.00001
 256        2PX         0.00000   0.00001   0.00000  -0.00000   0.00000
 257        2PY        -0.00000  -0.00000   0.00000  -0.00000   0.00000
 258        2PZ        -0.00000   0.00000  -0.00000  -0.00000   0.00000
 259        3S         -0.00004   0.00004  -0.00004   0.00008  -0.00004
 260        3PX         0.00001  -0.00008   0.00000  -0.00003  -0.00000
 261        3PY         0.00001  -0.00005  -0.00002   0.00002  -0.00006
 262        3PZ        -0.00001  -0.00009  -0.00002   0.00003  -0.00009
 263        4XX         0.00000  -0.00001   0.00000   0.00000  -0.00000
 264        4YY        -0.00000  -0.00000  -0.00000  -0.00000   0.00000
 265        4ZZ        -0.00000  -0.00000   0.00000  -0.00000  -0.00000
 266        4XY         0.00000  -0.00000   0.00000   0.00000   0.00000
 267        4XZ        -0.00000   0.00000   0.00000  -0.00000   0.00000
 268        4YZ         0.00000   0.00000  -0.00000   0.00000  -0.00000
 269 23  H  1S          0.00000  -0.00001   0.00000  -0.00000  -0.00001
 270        2S          0.00008  -0.00001   0.00001   0.00002   0.00003
 271        3PX         0.00000   0.00000   0.00000   0.00000   0.00001
 272        3PY         0.00000   0.00000   0.00000   0.00000   0.00000
 273        3PZ        -0.00000  -0.00001  -0.00000   0.00000  -0.00000
 274 24  N  1S         -0.00000  -0.00000  -0.00000   0.00000  -0.00000
 275        2S         -0.00000  -0.00001  -0.00000   0.00000  -0.00001
 276        2PX         0.00000   0.00000   0.00000   0.00000   0.00000
 277        2PY        -0.00000  -0.00000  -0.00000  -0.00000  -0.00001
 278        2PZ        -0.00000   0.00001   0.00000  -0.00000   0.00000
 279        3S         -0.00002   0.00001   0.00000   0.00000   0.00002
 280        3PX        -0.00003   0.00001  -0.00001  -0.00001  -0.00005
 281        3PY         0.00003   0.00000   0.00001   0.00002   0.00004
 282        3PZ         0.00005  -0.00006  -0.00001   0.00001  -0.00002
 283        4XX         0.00000  -0.00000  -0.00000  -0.00000   0.00000
 284        4YY        -0.00000  -0.00001  -0.00000  -0.00000  -0.00001
 285        4ZZ        -0.00000  -0.00001  -0.00000  -0.00000  -0.00001
 286        4XY         0.00000  -0.00000  -0.00000  -0.00000  -0.00000
 287        4XZ        -0.00000   0.00000   0.00000   0.00000   0.00000
 288        4YZ        -0.00000   0.00000   0.00000  -0.00000   0.00000
 289 25  H  1S         -0.00001   0.00003  -0.00000   0.00000   0.00003
 290        2S          0.00013  -0.00010   0.00002   0.00001  -0.00007
 291        3PX         0.00001  -0.00000  -0.00000   0.00000  -0.00000
 292        3PY         0.00000  -0.00000   0.00000   0.00000   0.00000
 293        3PZ        -0.00000   0.00001  -0.00000  -0.00000   0.00000
 294 26  C  1S          0.00000  -0.00000  -0.00000   0.00000  -0.00000
 295        2S          0.00000  -0.00001  -0.00000   0.00000  -0.00001
 296        2PX        -0.00000   0.00000   0.00000  -0.00000   0.00000
 297        2PY         0.00000  -0.00001   0.00000   0.00000  -0.00000
 298        2PZ         0.00000  -0.00000  -0.00000   0.00000  -0.00000
 299        3S          0.00004   0.00007   0.00003  -0.00002   0.00010
 300        3PX        -0.00000  -0.00003  -0.00001   0.00003  -0.00003
 301        3PY         0.00001  -0.00005  -0.00001   0.00001  -0.00002
 302        3PZ         0.00002  -0.00004  -0.00000   0.00001   0.00001
 303        4XX         0.00000  -0.00001  -0.00000   0.00000  -0.00000
 304        4YY         0.00000  -0.00001  -0.00000   0.00000  -0.00000
 305        4ZZ         0.00000  -0.00000   0.00000   0.00000   0.00000
 306        4XY         0.00000   0.00000   0.00000  -0.00000   0.00000
 307        4XZ        -0.00000   0.00000   0.00000  -0.00000  -0.00000
 308        4YZ         0.00000   0.00000   0.00000  -0.00000   0.00000
 309 27  H  1S          0.00000  -0.00001  -0.00000   0.00000  -0.00001
 310        2S          0.00000  -0.00002  -0.00000   0.00001  -0.00003
 311        3PX        -0.00000   0.00000  -0.00000   0.00000   0.00000
 312        3PY        -0.00000   0.00000   0.00000  -0.00000   0.00000
 313        3PZ         0.00000   0.00000   0.00000   0.00000   0.00000
 314 28  H  1S         -0.00000   0.00000   0.00000  -0.00000  -0.00000
 315        2S         -0.00000   0.00001   0.00000  -0.00001   0.00001
 316        3PX         0.00000  -0.00000  -0.00000   0.00000  -0.00000
 317        3PY        -0.00000   0.00000   0.00000  -0.00000   0.00000
 318        3PZ        -0.00000   0.00000   0.00000  -0.00000  -0.00000
                           6         7         8         9        10
                           O         O         O         O         O
     Eigenvalues --   -19.19467 -19.18188 -19.13015 -19.12606 -14.33999
   1 1   C  1S         -0.00002  -0.00001  -0.00000  -0.00002  -0.00000
   2        2S         -0.00015   0.00017  -0.00004  -0.00013  -0.00001
   3        2PX         0.00003   0.00010   0.00000  -0.00002  -0.00000
   4        2PY         0.00000  -0.00013  -0.00005  -0.00001  -0.00000
   5        2PZ         0.00004  -0.00029  -0.00005  -0.00006  -0.00000
   6        3S          0.00091  -0.00124  -0.00001   0.00058   0.00008
   7        3PX        -0.00018  -0.00069  -0.00045   0.00033   0.00003
   8        3PY         0.00075   0.00066   0.00057   0.00048  -0.00001
   9        3PZ        -0.00056   0.00105   0.00055   0.00060   0.00001
  10        4XX        -0.00002   0.00003   0.00006  -0.00003  -0.00000
  11        4YY         0.00005   0.00005  -0.00000   0.00003  -0.00000
  12        4ZZ        -0.00001   0.00019  -0.00002  -0.00002  -0.00000
  13        4XY         0.00003   0.00001   0.00001   0.00001  -0.00000
  14        4XZ        -0.00001  -0.00004  -0.00002   0.00001   0.00000
  15        4YZ        -0.00000   0.00007   0.00001   0.00002   0.00000
  16 2   O  1S         -0.00010   0.99273   0.00000   0.00001   0.00000
  17        2S         -0.00002   0.02580  -0.00001   0.00002   0.00001
  18        2PX        -0.00000  -0.00084  -0.00003   0.00001   0.00000
  19        2PY        -0.00003   0.00058  -0.00001   0.00004  -0.00000
  20        2PZ        -0.00000   0.00021   0.00001   0.00001   0.00000
  21        3S         -0.00019   0.01249   0.00029   0.00010  -0.00003
  22        3PX         0.00014   0.00003   0.00014  -0.00011  -0.00001
  23        3PY         0.00009   0.00009   0.00005  -0.00014  -0.00000
  24        3PZ        -0.00001   0.00058   0.00011  -0.00002  -0.00002
  25        4XX        -0.00002  -0.00810   0.00000   0.00005   0.00000
  26        4YY         0.00005  -0.00815   0.00001   0.00001   0.00001
  27        4ZZ        -0.00001  -0.00818   0.00004   0.00003   0.00000
  28        4XY         0.00002  -0.00001  -0.00000  -0.00000  -0.00000
  29        4XZ         0.00000   0.00005   0.00001  -0.00001  -0.00000
  30        4YZ        -0.00001  -0.00004   0.00000  -0.00002  -0.00000
  31 3   H  1S         -0.00005   0.00034   0.00005   0.00003  -0.00000
  32        2S          0.00035  -0.00121  -0.00016  -0.00023  -0.00000
  33        3PX         0.00003  -0.00009  -0.00001  -0.00001  -0.00000
  34        3PY         0.00001   0.00004  -0.00000   0.00001   0.00000
  35        3PZ         0.00002  -0.00013  -0.00001  -0.00002  -0.00000
  36 4   P  1S          0.00000   0.00000   0.00002  -0.00000  -0.00000
  37        2S          0.00001   0.00004  -0.00007  -0.00004  -0.00000
  38        2PX        -0.00000  -0.00000  -0.00002   0.00000   0.00000
  39        2PY        -0.00000   0.00000   0.00000   0.00000   0.00000
  40        2PZ        -0.00000   0.00000   0.00001   0.00001   0.00000
  41        3S          0.00007   0.00028   0.00089  -0.00015  -0.00001
  42        3PX         0.00004   0.00009   0.00012  -0.00006  -0.00001
  43        3PY         0.00001   0.00001   0.00006  -0.00005  -0.00000
  44        3PZ         0.00001  -0.00006   0.00011  -0.00008  -0.00000
  45        4S         -0.00033  -0.00110  -0.00323   0.00075   0.00004
  46        4PX        -0.00013  -0.00049   0.00001   0.00019   0.00002
  47        4PY        -0.00018   0.00024  -0.00111   0.00029   0.00000
  48        4PZ        -0.00011   0.00027  -0.00220  -0.00016   0.00001
  49        5XX         0.00001   0.00003  -0.00025  -0.00004  -0.00000
  50        5YY         0.00002  -0.00003  -0.00027  -0.00006  -0.00000
  51        5ZZ        -0.00000  -0.00003  -0.00019  -0.00001  -0.00000
  52        5XY        -0.00002  -0.00003  -0.00002  -0.00001   0.00000
  53        5XZ         0.00004   0.00000  -0.00004  -0.00002  -0.00000
  54        5YZ         0.00000  -0.00002   0.00005  -0.00000   0.00000
  55 5   P  1S          0.00001   0.00000  -0.00000   0.00002   0.00000
  56        2S          0.00000   0.00004  -0.00003  -0.00007   0.00000
  57        2PX        -0.00005  -0.00002  -0.00000  -0.00000   0.00000
  58        2PY        -0.00001   0.00001  -0.00000   0.00002   0.00000
  59        2PZ         0.00004  -0.00000  -0.00000   0.00000   0.00000
  60        3S          0.00040   0.00023  -0.00011   0.00094   0.00000
  61        3PX         0.00012   0.00014   0.00004   0.00004  -0.00000
  62        3PY        -0.00008  -0.00013   0.00002  -0.00008  -0.00000
  63        3PZ        -0.00013  -0.00002   0.00000   0.00014  -0.00000
  64        4S         -0.00361  -0.00085  -0.00004  -0.00358  -0.00003
  65        4PX        -0.00061  -0.00004  -0.00014  -0.00042  -0.00001
  66        4PY         0.00027   0.00038   0.00006   0.00009   0.00004
  67        4PZ         0.00224   0.00021  -0.00023  -0.00246  -0.00002
  68        5XX         0.00011   0.00001   0.00000  -0.00028   0.00000
  69        5YY        -0.00002   0.00003  -0.00004  -0.00028  -0.00000
  70        5ZZ         0.00000  -0.00003  -0.00003  -0.00019   0.00000
  71        5XY         0.00003  -0.00005   0.00000  -0.00002  -0.00000
  72        5XZ        -0.00024  -0.00002  -0.00004   0.00002  -0.00000
  73        5YZ        -0.00007   0.00001  -0.00002   0.00003  -0.00000
  74 6   O  1S          0.00006  -0.00005   0.00003   0.00003   0.00000
  75        2S          0.00002  -0.00011  -0.00000   0.00008   0.00000
  76        2PX         0.00002  -0.00002   0.00003   0.00000   0.00000
  77        2PY        -0.00002  -0.00000  -0.00005   0.00001  -0.00000
  78        2PZ        -0.00001   0.00002  -0.00003   0.00002   0.00000
  79        3S         -0.00003   0.00052  -0.00003  -0.00043  -0.00000
  80        3PX        -0.00007   0.00022  -0.00009  -0.00007  -0.00000
  81        3PY         0.00006  -0.00001   0.00023  -0.00007   0.00000
  82        3PZ         0.00003  -0.00006   0.00028  -0.00012  -0.00000
  83        4XX         0.00001  -0.00007   0.00001   0.00008   0.00000
  84        4YY         0.00003  -0.00007  -0.00001   0.00006   0.00000
  85        4ZZ         0.00001  -0.00008   0.00005   0.00006   0.00000
  86        4XY         0.00001  -0.00000   0.00002   0.00000   0.00000
  87        4XZ         0.00000  -0.00001   0.00002  -0.00001  -0.00000
  88        4YZ         0.00001  -0.00000  -0.00000  -0.00000  -0.00000
  89 7   H  1S         -0.00000   0.00001   0.00001  -0.00001  -0.00000
  90        2S         -0.00004   0.00007  -0.00005  -0.00003   0.00000
  91        3PX        -0.00000   0.00001   0.00001  -0.00002   0.00000
  92        3PY        -0.00001   0.00001  -0.00000  -0.00001  -0.00000
  93        3PZ        -0.00001   0.00002  -0.00001   0.00001   0.00000
  94 8   O  1S          0.00000  -0.00008   0.00006  -0.00000   0.00000
  95        2S         -0.00001  -0.00017   0.00001  -0.00000   0.00000
  96        2PX        -0.00001  -0.00002   0.00001   0.00000  -0.00000
  97        2PY        -0.00001  -0.00003  -0.00002  -0.00000   0.00000
  98        2PZ        -0.00000   0.00001  -0.00005  -0.00000   0.00000
  99        3S          0.00002   0.00076  -0.00006  -0.00002  -0.00001
 100        3PX         0.00003   0.00011  -0.00002  -0.00002  -0.00000
 101        3PY         0.00004   0.00022   0.00022  -0.00000  -0.00001
 102        3PZ         0.00000  -0.00010   0.00033   0.00001  -0.00000
 103        4XX        -0.00001  -0.00011   0.00005  -0.00000   0.00000
 104        4YY        -0.00000  -0.00010   0.00008   0.00000   0.00000
 105        4ZZ        -0.00001  -0.00012   0.00004  -0.00001   0.00000
 106        4XY         0.00000   0.00002   0.00000   0.00000  -0.00000
 107        4XZ        -0.00000  -0.00001   0.00001  -0.00000   0.00000
 108        4YZ         0.00000  -0.00001   0.00001   0.00001  -0.00000
 109 9   H  1S          0.00001   0.00000  -0.00010   0.00000   0.00000
 110        2S          0.00001   0.00008   0.00032   0.00003  -0.00000
 111        3PX        -0.00000  -0.00000   0.00000  -0.00000  -0.00000
 112        3PY         0.00000   0.00000   0.00004   0.00000  -0.00000
 113        3PZ        -0.00001  -0.00002   0.00003  -0.00000   0.00000
 114 10  O  1S         -0.00050  -0.00011  -0.00003   0.00005   0.00000
 115        2S         -0.00025  -0.00014  -0.00005   0.00003   0.00000
 116        2PX        -0.00000  -0.00001   0.00003   0.00003   0.00000
 117        2PY         0.00004   0.00003   0.00001  -0.00002   0.00000
 118        2PZ         0.00003   0.00002  -0.00003  -0.00006   0.00000
 119        3S          0.00147   0.00061   0.00015  -0.00015  -0.00000
 120        3PX         0.00033   0.00012  -0.00008  -0.00001  -0.00000
 121        3PY        -0.00044  -0.00024  -0.00010   0.00010  -0.00000
 122        3PZ        -0.00001  -0.00002   0.00014   0.00041  -0.00000
 123        4XX        -0.00020  -0.00010  -0.00004   0.00005   0.00000
 124        4YY        -0.00018  -0.00011  -0.00009   0.00005   0.00000
 125        4ZZ        -0.00014  -0.00011  -0.00004   0.00007   0.00000
 126        4XY        -0.00005  -0.00002   0.00001  -0.00000  -0.00000
 127        4XZ         0.00003   0.00000   0.00000   0.00004  -0.00000
 128        4YZ         0.00002   0.00001  -0.00002  -0.00003  -0.00000
 129 11  H  1S          0.00006   0.00004   0.00006  -0.00003   0.00000
 130        2S          0.00037   0.00002  -0.00003   0.00003  -0.00001
 131        3PX         0.00005  -0.00001   0.00000   0.00001  -0.00000
 132        3PY        -0.00005  -0.00003  -0.00003   0.00000   0.00000
 133        3PZ         0.00002   0.00001  -0.00001  -0.00000  -0.00000
 134 12  O  1S          0.99267   0.00010  -0.00000   0.00004  -0.00001
 135        2S          0.02568  -0.00004  -0.00001  -0.00003  -0.00002
 136        2PX         0.00030   0.00000   0.00000  -0.00002  -0.00000
 137        2PY        -0.00012  -0.00001   0.00000  -0.00001  -0.00000
 138        2PZ         0.00088  -0.00001  -0.00001  -0.00005  -0.00000
 139        3S          0.01321   0.00022   0.00002   0.00017   0.00013
 140        3PX        -0.00062  -0.00003   0.00003   0.00005   0.00005
 141        3PY        -0.00024  -0.00004  -0.00002  -0.00000  -0.00000
 142        3PZ         0.00004   0.00002   0.00005   0.00044   0.00003
 143        4XX        -0.00829   0.00002  -0.00001   0.00004  -0.00001
 144        4YY        -0.00828   0.00001  -0.00001   0.00001  -0.00002
 145        4ZZ        -0.00832  -0.00000  -0.00001   0.00002  -0.00002
 146        4XY         0.00000   0.00000  -0.00000  -0.00001  -0.00000
 147        4XZ         0.00004   0.00003   0.00001  -0.00002   0.00001
 148        4YZ         0.00001  -0.00000  -0.00000  -0.00003  -0.00000
 149 13  H  1S          0.00040  -0.00004  -0.00002  -0.00010  -0.00000
 150        2S         -0.00105   0.00006   0.00001   0.00021  -0.00011
 151        3PX         0.00010   0.00001   0.00000   0.00000   0.00002
 152        3PY         0.00002  -0.00001   0.00000  -0.00000   0.00000
 153        3PZ         0.00001   0.00001   0.00000   0.00005   0.00001
 154 14  O  1S         -0.00003   0.00000   0.00009   0.99270  -0.00000
 155        2S          0.00005  -0.00000  -0.00010   0.02552  -0.00001
 156        2PX        -0.00003  -0.00001   0.00001  -0.00009  -0.00000
 157        2PY        -0.00001   0.00000   0.00002  -0.00022   0.00000
 158        2PZ         0.00001  -0.00000  -0.00000  -0.00081  -0.00000
 159        3S         -0.00029   0.00004   0.00046   0.01321   0.00003
 160        3PX         0.00017   0.00001  -0.00003  -0.00002   0.00001
 161        3PY         0.00002  -0.00004  -0.00009  -0.00035  -0.00001
 162        3PZ        -0.00027  -0.00003  -0.00005  -0.00053  -0.00000
 163        4XX         0.00004   0.00001  -0.00007  -0.00824  -0.00000
 164        4YY         0.00006  -0.00000  -0.00008  -0.00824  -0.00001
 165        4ZZ         0.00011   0.00001  -0.00007  -0.00821  -0.00000
 166        4XY        -0.00003  -0.00000   0.00002  -0.00000   0.00000
 167        4XZ         0.00000   0.00000  -0.00001   0.00000  -0.00000
 168        4YZ         0.00001   0.00000   0.00001   0.00003   0.00000
 169 15  O  1S         -0.00001  -0.00000   0.99271  -0.00012   0.00000
 170        2S         -0.00004  -0.00000   0.02555  -0.00004   0.00000
 171        2PX         0.00000  -0.00001   0.00025  -0.00002   0.00000
 172        2PY         0.00001   0.00000  -0.00039  -0.00002  -0.00000
 173        2PZ         0.00001  -0.00001  -0.00072  -0.00000  -0.00000
 174        3S          0.00023   0.00000   0.01304   0.00010  -0.00002
 175        3PX         0.00001   0.00007   0.00036   0.00009  -0.00000
 176        3PY        -0.00005  -0.00005  -0.00022   0.00006   0.00000
 177        3PZ        -0.00006  -0.00002  -0.00044   0.00002   0.00000
 178        4XX        -0.00003   0.00000  -0.00821  -0.00003   0.00000
 179        4YY        -0.00002   0.00002  -0.00821  -0.00003   0.00000
 180        4ZZ        -0.00002   0.00001  -0.00819  -0.00005   0.00000
 181        4XY        -0.00001  -0.00001  -0.00002   0.00002   0.00000
 182        4XZ         0.00000  -0.00001  -0.00003  -0.00002   0.00000
 183        4YZ         0.00000   0.00001   0.00002   0.00001  -0.00000
 184 16  C  1S         -0.00002   0.00000  -0.00001  -0.00001   0.00000
 185        2S         -0.00008   0.00009  -0.00001  -0.00006   0.00000
 186        2PX        -0.00001  -0.00003   0.00007  -0.00001   0.00001
 187        2PY        -0.00001   0.00001   0.00001  -0.00004   0.00000
 188        2PZ         0.00000  -0.00006  -0.00001   0.00003  -0.00000
 189        3S          0.00022  -0.00003  -0.00060  -0.00006  -0.00007
 190        3PX        -0.00054  -0.00041  -0.00121   0.00020   0.00002
 191        3PY         0.00013   0.00007  -0.00026   0.00010   0.00001
 192        3PZ        -0.00012   0.00013  -0.00019  -0.00018   0.00006
 193        4XX        -0.00003  -0.00001  -0.00007  -0.00003   0.00002
 194        4YY        -0.00003   0.00001  -0.00002  -0.00001   0.00000
 195        4ZZ        -0.00004  -0.00008  -0.00001  -0.00003  -0.00000
 196        4XY        -0.00001   0.00000  -0.00001  -0.00000   0.00000
 197        4XZ         0.00001  -0.00000   0.00004  -0.00000  -0.00001
 198        4YZ        -0.00002  -0.00001  -0.00001   0.00001  -0.00000
 199 17  H  1S         -0.00002   0.00002  -0.00005   0.00001   0.00000
 200        2S          0.00002   0.00013  -0.00019   0.00011  -0.00000
 201        3PX         0.00001  -0.00001   0.00004  -0.00001  -0.00001
 202        3PY         0.00001   0.00001  -0.00001   0.00001   0.00000
 203        3PZ        -0.00000  -0.00005   0.00000   0.00001  -0.00000
 204 18  H  1S         -0.00001  -0.00001  -0.00005   0.00005   0.00000
 205        2S         -0.00008  -0.00012   0.00043   0.00015  -0.00004
 206        3PX         0.00001   0.00003   0.00002  -0.00002  -0.00000
 207        3PY        -0.00002  -0.00001   0.00001   0.00002  -0.00000
 208        3PZ         0.00000   0.00000  -0.00002   0.00000   0.00000
 209 19  C  1S         -0.00001  -0.00003  -0.00002  -0.00002   0.00001
 210        2S         -0.00003  -0.00016  -0.00010  -0.00006   0.00008
 211        2PX         0.00003   0.00002   0.00004   0.00003  -0.00004
 212        2PY        -0.00000  -0.00003   0.00000  -0.00006  -0.00002
 213        2PZ        -0.00003  -0.00004  -0.00000  -0.00002  -0.00000
 214        3S         -0.00025   0.00148   0.00081   0.00021  -0.00092
 215        3PX        -0.00080  -0.00031  -0.00118   0.00009  -0.00036
 216        3PY         0.00001  -0.00014  -0.00015   0.00043  -0.00026
 217        3PZ         0.00043  -0.00045   0.00028   0.00038  -0.00026
 218        4XX        -0.00001  -0.00000   0.00002  -0.00003  -0.00008
 219        4YY        -0.00000  -0.00003  -0.00004  -0.00003  -0.00002
 220        4ZZ        -0.00002   0.00000  -0.00003  -0.00006   0.00001
 221        4XY        -0.00001   0.00002   0.00001   0.00001  -0.00005
 222        4XZ         0.00002   0.00003  -0.00002   0.00002  -0.00003
 223        4YZ        -0.00003   0.00002  -0.00000   0.00000   0.00000
 224 20  C  1S         -0.00001   0.00001  -0.00000   0.00000  -0.00001
 225        2S         -0.00006  -0.00001  -0.00002  -0.00001  -0.00001
 226        2PX        -0.00001  -0.00011  -0.00001  -0.00001  -0.00001
 227        2PY         0.00000   0.00006   0.00000   0.00002  -0.00001
 228        2PZ         0.00002  -0.00003   0.00000   0.00001  -0.00001
 229        3S          0.00093   0.00019   0.00040   0.00022   0.00020
 230        3PX         0.00018   0.00111   0.00031  -0.00015   0.00020
 231        3PY         0.00032  -0.00046   0.00021  -0.00004   0.00020
 232        3PZ         0.00032  -0.00055   0.00018   0.00014   0.00021
 233        4XX        -0.00001   0.00010  -0.00001   0.00001  -0.00003
 234        4YY        -0.00001   0.00003  -0.00000  -0.00000  -0.00001
 235        4ZZ        -0.00000   0.00003   0.00000   0.00002  -0.00002
[...]
   5         O               -19.198283         29.024863
   6         O               -19.194675         29.024893
   7         O               -19.181881         29.027152
   8         O               -19.130153         29.027549
   9         O               -19.126062         29.027318
  10         O               -14.339989         21.961155
  11         O               -10.285464         15.891380
  12         O               -10.228594         15.881351
  13         O               -10.228480         15.880865
  14         O               -10.217328         15.885321
  15         O               -10.215524         15.882110
  16         O               -10.211062         15.880832
  17         O               -10.203160         15.880648
  18         O                -6.686375         15.694048
  19         O                -6.682043         15.693929
  20         O                -4.851034         14.708649
  21         O                -4.849379         14.705950
  22         O                -4.847340         14.709170
  23         O                -4.846592         14.708172
  24         O                -4.845080         14.706416
  25         O                -4.843065         14.709502
  26         O                -1.097298          2.493915
  27         O                -1.089537          2.560277
  28         O                -1.053513          2.565459
  29         O                -1.044412          2.744833
  30         O                -1.041273          2.752268
  31         O                -0.979506          2.856370
  32         O                -0.974196          2.876981
  33         O                -0.947090          1.824840
  34         O                -0.831004          1.622720
  35         O                -0.789960          1.655745
  36         O                -0.755709          1.754610
  37         O                -0.687176          1.824402
  38         O                -0.659636          2.163563
  39         O                -0.636349          1.535964
  40         O                -0.627739          1.822411
  41         O                -0.596072          1.770935
  42         O                -0.579821          1.898487
  43         O                -0.563532          2.051835
  44         O                -0.541692          1.703756
  45         O                -0.525006          1.260026
  46         O                -0.509076          1.547466
  47         O                -0.490321          1.572422
  48         O                -0.475761          2.291425
  49         O                -0.469697          2.282031
  50         O                -0.460087          1.508644
  51         O                -0.442518          1.730007
  52         O                -0.439933          2.054618
  53         O                -0.426806          1.998191
  54         O                -0.418050          1.600512
  55         O                -0.416372          1.976408
  56         O                -0.407888          1.434473
  57         O                -0.401431          1.921393
  58         O                -0.397836          1.395890
  59         O                -0.392236          2.074913
  60         O                -0.386216          2.094082
  61         O                -0.375536          2.217805
  62         O                -0.374699          2.235536
  63         O                -0.366043          1.723819
  64         O                -0.354382          2.157563
  65         O                -0.350452          2.194592
  66         O                -0.327705          2.265563
  67         O                -0.313374          2.280177
  68         O                -0.310460          2.173936
  69         O                -0.307287          2.299319
  70         O                -0.289874          1.315808
  71         O                -0.275773          2.308153
  72         O                -0.264122          1.475843
  73         O                -0.263727          1.661884
  74         V                -0.033672          1.553605
  75         V                -0.021235          1.433475
  76         V                 0.027869          1.997842
  77         V                 0.035274          1.874740
  78         V                 0.051481          1.919776
  79         V                 0.053199          1.994717
  80         V                 0.081919          1.733159
  81         V                 0.098132          1.324716
  82         V                 0.105149          1.669882
  83         V                 0.107816          1.725395
  84         V                 0.118170          1.868954
  85         V                 0.120730          1.281299
  86         V                 0.132154          2.005681
  87         V                 0.139221          1.926253
  88         V                 0.144228          1.781768
  89         V                 0.145924          2.363327
  90         V                 0.154726          2.075238
  91         V                 0.161301          1.281954
  92         V                 0.178731          1.399539
  93         V                 0.183542          1.767657
  94         V                 0.190776          1.653353
  95         V                 0.201504          2.306432
  96         V                 0.225263          1.936484
  97         V                 0.242394          2.230483
  98         V                 0.244218          2.013613
  99         V                 0.258085          2.068384
 100         V                 0.307933          1.716198
 101         V                 0.324276          1.835399
 102         V                 0.324592          2.014721
 103         V                 0.337887          1.902011
 104         V                 0.357057          2.055992
 105         V                 0.369384          2.147637
 106         V                 0.379466          2.252343
 107         V                 0.390210          2.339377
 108         V                 0.396275          1.895842
 109         V                 0.415940          2.008860
 110         V                 0.439067          2.017549
 111         V                 0.446388          2.156445
 112         V                 0.457862          1.994064
 113         V                 0.491119          2.222978
 114         V                 0.514507          2.254055
 115         V                 0.535549          2.292617
 116         V                 0.541776          2.364268
 117         V                 0.552119          2.217102
 118         V                 0.565432          2.214537
 119         V                 0.577681          2.320757
 120         V                 0.585791          2.116427
 121         V                 0.592340          2.015817
 122         V                 0.597663          2.122307
 123         V                 0.603887          2.250006
 124         V                 0.636818          3.025802
 125         V                 0.642989          2.316877
 126         V                 0.654445          2.327818
 127         V                 0.658187          2.373608
 128         V                 0.679785          2.418937
 129         V                 0.719213          2.352242
 130         V                 0.734605          2.573321
 131         V                 0.740380          2.537596
 132         V                 0.747735          2.509834
 133         V                 0.755643          2.646043
 134         V                 0.761146          2.571642
 135         V                 0.773304          2.604045
 136         V                 0.785452          2.759267
 137         V                 0.797003          2.590604
 138         V                 0.809057          2.599340
 139         V                 0.813188          2.587194
 140         V                 0.825204          2.529436
 141         V                 0.830061          2.515328
 142         V                 0.838951          2.495481
 143         V                 0.846010          2.397396
 144         V                 0.859379          2.712843
 145         V                 0.866003          2.622168
 146         V                 0.876159          2.659384
 147         V                 0.878984          2.657701
 148         V                 0.892704          2.748429
 149         V                 0.897145          2.500694
 150         V                 0.904985          2.912947
 151         V                 0.915247          2.786370
 152         V                 0.923238          2.835117
 153         V                 0.926999          2.890281
 154         V                 0.957083          2.786427
 155         V                 0.962026          2.739866
 156         V                 0.968481          2.880067
 157         V                 0.969670          3.041293
 158         V                 0.986791          2.895050
 159         V                 0.991112          3.179058
 160         V                 0.996049          3.135117
 161         V                 1.022447          3.155789
 162         V                 1.027067          3.147103
 163         V                 1.038819          2.769955
 164         V                 1.048421          2.962666
 165         V                 1.053806          3.288319
 166         V                 1.070574          2.898638
 167         V                 1.084229          3.211807
 168         V                 1.097919          3.146823
 169         V                 1.106516          2.854921
 170         V                 1.120979          3.340277
 171         V                 1.137498          3.265068
 172         V                 1.155066          3.337921
 173         V                 1.164524          3.129542
 174         V                 1.186677          2.964572
 175         V                 1.194697          3.261747
 176         V                 1.198585          3.275023
 177         V                 1.202959          2.933576
 178         V                 1.226131          3.001311
 179         V                 1.249279          2.708491
 180         V                 1.256852          2.859371
 181         V                 1.289324          2.940305
 182         V                 1.303935          2.740204
 183         V                 1.321749          2.931755
 184         V                 1.346675          2.568484
 185         V                 1.368083          2.585008
 186         V                 1.379128          2.596797
 187         V                 1.396727          2.540040
 188         V                 1.419612          2.726964
 189         V                 1.429839          2.597167
 190         V                 1.452103          2.688662
 191         V                 1.456787          2.642428
 192         V                 1.460596          2.687435
 193         V                 1.477407          2.750734
 194         V                 1.490870          2.663358
 195         V                 1.525914          2.720931
 196         V                 1.546787          2.708349
 197         V                 1.558088          2.705072
 198         V                 1.572483          2.741981
 199         V                 1.582692          2.754800
 200         V                 1.600631          2.794193
 201         V                 1.608117          2.750090
 202         V                 1.613398          2.823425
 203         V                 1.675114          2.900449
 204         V                 1.680915          2.918850
 205         V                 1.697178          2.892956
 206         V                 1.704450          2.891249
 207         V                 1.734648          2.886776
 208         V                 1.748122          3.020760
 209         V                 1.763225          2.978298
 210         V                 1.768709          2.971763
 211         V                 1.773155          3.045153
 212         V                 1.797699          3.149967
 213         V                 1.808646          3.035133
 214         V                 1.822770          3.069337
 215         V                 1.831723          3.023370
 216         V                 1.834462          3.172649
 217         V                 1.840191          3.058448
 218         V                 1.856498          3.054535
 219         V                 1.858932          3.204866
 220         V                 1.878689          3.333282
 221         V                 1.897876          3.315829
 222         V                 1.901979          3.223559
 223         V                 1.912272          3.390948
 224         V                 1.940714          3.198435
 225         V                 1.951287          3.347886
 226         V                 1.959976          3.229247
 227         V                 1.973870          3.090388
 228         V                 1.988788          3.295210
 229         V                 2.006296          3.318808
 230         V                 2.030994          3.503975
 231         V                 2.057637          3.602970
 232         V                 2.083173          3.456969
 233         V                 2.102131          3.362160
 234         V                 2.106253          3.392438
 235         V                 2.124747          3.394763
 236         V                 2.129695          3.437810
 237         V                 2.139064          3.489692
 238         V                 2.178131          3.474312
 239         V                 2.207256          3.507217
 240         V                 2.230403          3.523239
 241         V                 2.242392          3.616330
 242         V                 2.269726          3.342660
 243         V                 2.289810          3.552834
 244         V                 2.297392          3.722831
 245         V                 2.315270          3.599552
 246         V                 2.319989          3.594100
 247         V                 2.327020          3.665293
 248         V                 2.333632          3.610077
 249         V                 2.343759          3.721734
 250         V                 2.366361          3.767462
 251         V                 2.385208          3.672550
 252         V                 2.387575          3.405071
 253         V                 2.396905          3.697351
 254         V                 2.427366          3.816156
 255         V                 2.435895          4.040411
 256         V                 2.445497          3.818850
 257         V                 2.473964          4.025435
 258         V                 2.477545          4.397337
 259         V                 2.490608          4.020561
 260         V                 2.514073          3.919951
 261         V                 2.520154          3.612400
 262         V                 2.543084          3.595781
 263         V                 2.590404          3.841277
 264         V                 2.600527          3.775846
 265         V                 2.603018          4.084395
 266         V                 2.606998          3.861680
 267         V                 2.609391          3.771068
 268         V                 2.614521          3.926353
 269         V                 2.635036          3.847277
 270         V                 2.638066          3.916382
 271         V                 2.652313          3.929418
 272         V                 2.667829          3.842598
 273         V                 2.676579          3.965209
 274         V                 2.689537          3.885147
 275         V                 2.698684          3.971187
 276         V                 2.707640          4.104772
 277         V                 2.725250          4.005889
 278         V                 2.729143          3.985201
 279         V                 2.732663          4.035013
 280         V                 2.798360          4.370830
 281         V                 2.807367          4.656593
 282         V                 2.821597          4.722732
 283         V                 2.844800          4.299384
 284         V                 2.867712          4.222271
 285         V                 2.912535          4.184119
 286         V                 2.983419          4.587670
 287         V                 2.995780          4.591091
 288         V                 3.060089          4.639253
 289         V                 3.185128          5.126515
 290         V                 3.232376          4.898201
 291         V                 3.267498          4.996828
 292         V                 3.302575          5.159074
 293         V                 3.334068          6.343799
 294         V                 3.344651          6.310620
 295         V                 3.356047          6.409310
 296         V                 3.389073          5.181696
 297         V                 3.407150          6.300518
 298         V                 3.446818          6.088004
 299         V                 3.450783          5.346551
 300         V                 3.466644          6.551071
 301         V                 3.506113          8.853461
 302         V                 3.551574         10.130152
 303         V                 3.791734          6.180677
 304         V                 3.860442          9.604023
 305         V                 3.891153          9.675354
 306         V                 3.989346         10.090639
 307         V                 4.029326         10.503225
 308         V                 4.048932         10.301208
 309         V                 4.106893         10.078927
 310         V                 4.176655         10.214474
 311         V                 4.200572         10.185485
 312         V                 4.230211         10.332400
 313         V                 4.312495         10.302899
 314         V                 4.339645         10.542377
 315         V                 4.392795         10.656248
 316         V                 4.474422         10.143697
 317         V                 4.642177         10.525191
 318         V                 4.759660         10.170648
 Total kinetic energy from orbitals= 1.527167992016D+03

 Test job not archived.
 1\1\GINC-BATAGIN2\SP\RB3LYP\6-31G(d,p)\C7H11N1O7P2\ORISON\22-Jan-2021\
 0\\#t B3LYP/6-31G(d,p) scrf=(solvent=water) # Gfinput IOP(6/7=3) Pop=h
 irshfeld Density Test # Units(Ang,Deg)\\w-risendronate-opt-g09.log\\0,
 1\C,0,0.67062,0.26051,-0.22272\O,0,0.45922,0.66161,-1.56466\H,0,1.1870
 5,0.31717,-2.1066\P,0,2.40713,0.73272,0.30004\P,0,0.38903,-1.57927,-0.
 02406\O,0,3.19549,0.4303,-1.07506\H,0,3.95431,1.01728,-1.22263\O,0,2.4
 2561,2.35184,0.31681\H,0,2.46108,2.70633,1.21929\O,0,1.62813,-2.13875,
 -0.88775\H,0,1.58884,-3.09366,-1.05918\O,0,-0.84941,-1.95638,-0.9958\H
 ,0,-1.69249,-1.97528,-0.51572\O,0,0.23496,-2.04366,1.38168\O,0,2.89865
 ,0.09068,1.54817\C,0,-0.32732,1.04108,0.67394\H,0,-0.09892,2.10235,0.5
 4125\H,0,-0.12188,0.78591,1.71721\C,0,-1.7912,0.80509,0.36906\C,0,-2.4
 1924,1.38428,-0.74164\C,0,-2.58473,0.01926,1.21557\C,0,-3.7733,1.14605
 ,-0.95784\H,0,-1.85077,2.00915,-1.42222\N,0,-3.88987,-0.22306,1.02\H,0
 ,-2.13793,-0.43916,2.09627\C,0,-4.46355,0.33586,-0.05443\H,0,-4.28911,
 1.58059,-1.80763\H,0,-5.52241,0.13098,-0.19836\\Version=EM64L-G16RevA.
 03\State=1-A\HF=-1537.5629686\RMSD=5.082e-09\Dipole=0.3654061,1.789350
 4,-2.1811037\Quadrupole=1.4457535,5.6962955,-7.142049,3.7368772,-1.706
 3085,8.6566578\PG=C01 [X(C7H11N1O7P2)]\\@


 THE POLHOLDE ROLLS WITHOUT SLIPPING ON THE HERPOLHOLDE LYING IN
 THE INVARIABLE PLANE.
 H.GOLDSTEIN, "CLASSICAL MECHANICS", PG 161
 Job cpu time:       0 days  0 hours 12 minutes 28.7 seconds.
 Elapsed time:       0 days  0 hours  1 minutes 34.0 seconds.
 File lengths (MBytes):  RWF=    144 Int=      0 D2E=      0 Chk=      8 Scr=      1
 Normal termination of Gaussian 16 at Fri Jan 22 02:58:33 2021.
