 Entering Gaussian System, Link 0=g16
 Input=ris-2dp_anion_scf_g09.com
 Output=ris-2dp_anion_scf_g09.log
 Initial command:
 /opt/g16//g16/l1.exe "/home/orison/scrgauss/Gau-14203.inp" -scrdir="/home/orison/scrgauss/"
 Entering Link 1 = /opt/g16//g16/l1.exe PID=     14205.
  
 Copyright (c) 1988,1990,1992,1993,1995,1998,2003,2009,2016,
            Gaussian, Inc.  All Rights Reserved.
  
 This is part of the Gaussian(R) 16 program.  It is based on
 the Gaussian(R) 09 system (copyright 2009, Gaussian, Inc.),
 the Gaussian(R) 03 system (copyright 2003, Gaussian, Inc.),
 the Gaussian(R) 98 system (copyright 1998, Gaussian, Inc.),
 the Gaussian(R) 94 system (copyright 1995, Gaussian, Inc.),
 the Gaussian 92(TM) system (copyright 1992, Gaussian, Inc.),
 the Gaussian 90(TM) system (copyright 1990, Gaussian, Inc.),
 the Gaussian 88(TM) system (copyright 1988, Gaussian, Inc.),
 the Gaussian 86(TM) system (copyright 1986, Carnegie Mellon
 University), and the Gaussian 82(TM) system (copyright 1983,
 Carnegie Mellon University). Gaussian is a federally registered
 trademark of Gaussian, Inc.
  
 This software contains proprietary and confidential information,
 including trade secrets, belonging to Gaussian, Inc.
  
 This software is provided under written license and may be
 used, copied, transmitted, or stored only in accord with that
 written license.
  
 The following legend is applicable only to US Government
 contracts under FAR:
  
                    RESTRICTED RIGHTS LEGEND
  
 Use, reproduction and disclosure by the US Government is
 subject to restrictions as set forth in subparagraphs (a)
 and (c) of the Commercial Computer Software - Restricted
 Rights clause in FAR 52.227-19.
  
 Gaussian, Inc.
 340 Quinnipiac St., Bldg. 40, Wallingford CT 06492
  
  
 ---------------------------------------------------------------
 Warning -- This program may not be used in any manner that
 competes with the business of Gaussian, Inc. or will provide
 assistance to any competitor of Gaussian, Inc.  The licensee
 of this program is prohibited from giving any competitor of
 Gaussian, Inc. access to this program.  By using this program,
 the user acknowledges that Gaussian, Inc. is engaged in the
 business of creating and licensing software in the field of
 computational chemistry and represents and warrants to the
 licensee that it is not a competitor of Gaussian, Inc. and that
 it will not use this program in any manner prohibited above.
 ---------------------------------------------------------------
  

 Cite this work as:
 Gaussian 16, Revision A.03,
 M. J. Frisch, G. W. Trucks, H. B. Schlegel, G. E. Scuseria, 
 M. A. Robb, J. R. Cheeseman, G. Scalmani, V. Barone, 
 G. A. Petersson, H. Nakatsuji, X. Li, M. Caricato, A. V. Marenich, 
 J. Bloino, B. G. Janesko, R. Gomperts, B. Mennucci, H. P. Hratchian, 
 J. V. Ortiz, A. F. Izmaylov, J. L. Sonnenberg, D. Williams-Young, 
 F. Ding, F. Lipparini, F. Egidi, J. Goings, B. Peng, A. Petrone, 
 T. Henderson, D. Ranasinghe, V. G. Zakrzewski, J. Gao, N. Rega, 
 G. Zheng, W. Liang, M. Hada, M. Ehara, K. Toyota, R. Fukuda, 
 J. Hasegawa, M. Ishida, T. Nakajima, Y. Honda, O. Kitao, H. Nakai, 
 T. Vreven, K. Throssell, J. A. Montgomery, Jr., J. E. Peralta, 
 F. Ogliaro, M. J. Bearpark, J. J. Heyd, E. N. Brothers, K. N. Kudin, 
 V. N. Staroverov, T. A. Keith, R. Kobayashi, J. Normand, 
 K. Raghavachari, A. P. Rendell, J. C. Burant, S. S. Iyengar, 
 J. Tomasi, M. Cossi, J. M. Millam, M. Klene, C. Adamo, R. Cammi, 
 J. W. Ochterski, R. L. Martin, K. Morokuma, O. Farkas, 
 J. B. Foresman, and D. J. Fox, Gaussian, Inc., Wallingford CT, 2016.
 
 ******************************************
 Gaussian 16:  EM64L-G16RevA.03 25-Dec-2016
                 8-Feb-2021 
 ******************************************
 %nproc=8
 Will use up to    8 processors via shared memory.
 %Mem=4GB
 ----------------------------------------------------------------------
 #t B3LYP/6-31G(d,p) scrf=(solvent=water) # Gfinput IOP(6/7=3) Pop=hirs
 hfeld Density Test # Units(Ang,Deg)
 ----------------------------------------------------------------------
 -------------------
 ris-2dp-opt-g09.log
 -------------------
 Symbolic Z-matrix:
 Charge = -3 Multiplicity = 2
 C                     0.36357  -0.92033  -0.64314 
 H                     0.18188  -0.70091  -1.69854 
 H                     0.16193  -1.99148  -0.51695 
 C                    -0.71427  -0.18219   0.18284 
 O                    -0.52255  -0.49658   1.58853 
 H                    -0.79082   0.3383    2.0337 
 C                     1.823    -0.68354  -0.31968 
 C                     2.38329  -0.95693   0.93585 
 C                     2.70696  -0.24245  -1.31596 
 C                     3.75097  -0.76539   1.13351 
 H                     1.74694  -1.3028    1.74186 
 N                     4.02364  -0.06201  -1.15017 
 H                     2.31724  -0.02155  -2.30926 
 C                     4.52883  -0.32094   0.06592 
 H                     4.20887  -0.96572   2.09722 
 H                     5.5999   -0.16959   0.18799 
 P                    -0.72368   1.69568   0.07096 
 P                    -2.40219  -0.90065  -0.26298 
 O                    -1.02378   2.12523   1.50421 
 O                     0.84517   2.12496  -0.28517 
 O                    -1.52841   2.19631  -1.10112 
 O                    -3.49157  -0.13186   0.45571 
 O                    -2.1904   -2.37593   0.50202 
 O                    -2.51862  -1.19182  -1.74392 
 H                     1.43186   1.91223   0.45474 
 H                    -1.74798  -2.16161   1.34264 
 
                    Distance matrix (angstroms):
                    1          2          3          4          5
     1  C    0.000000
     2  H    1.093172   0.000000
     3  H    1.097244   1.749893   0.000000
     4  C    1.545585   2.147498   2.128606   0.000000
     5  O    2.438262   3.367908   2.671383   1.453121   0.000000
     6  H    3.175254   3.994461   3.583493   1.924176   0.983448
     7  C    1.513483   2.143556   2.123388   2.634695   3.029492
     8  C    2.563946   3.442639   2.848747   3.280568   3.013606
     9  C    2.530550   2.594722   3.189781   3.735619   4.350906
    10  C    3.828181   4.556651   4.136245   4.602419   4.306074
    11  H    2.783563   3.827275   2.844074   3.121516   2.413314
    12  N    3.793403   3.932941   4.363098   4.923327   5.325145
    13  H    2.720402   2.322557   3.426129   3.927648   4.845908
    14  C    4.267485   4.706769   4.711715   5.246239   5.278791
    15  H    4.722072   5.540268   4.925829   5.340045   4.781756
    16  H    5.354768   5.761618   5.778213   6.314185   6.289104
    17  P    2.921568   3.113649   3.837329   1.881223   2.673850
    18  P    2.791834   2.962794   2.798057   1.887860   2.669159
    19  O    3.976341   4.438276   4.736908   2.676939   2.670623
    20  O    3.103848   3.228484   4.179189   2.823797   3.500554
    21  O    3.674613   3.417000   4.553690   2.822878   3.936703
    22  O    4.085494   4.296376   4.213350   2.791126   3.198653
    23  O    3.154826   3.643607   2.592211   2.663331   2.737551
    24  O    3.097167   2.745132   3.054547   2.826205   3.946248
    25  H    3.220245   3.609372   4.218513   3.011046   3.302660
    26  H    3.153211   3.886744   2.671100   2.516306   2.081938
                    6          7          8          9         10
     6  H    0.000000
     7  C    3.662596   0.000000
     8  C    3.599704   1.401793   0.000000
     9  C    4.877700   1.403039   2.384511   0.000000
    10  C    4.759867   2.415684   1.395101   2.713545   0.000000
    11  H    3.036216   2.153884   1.083614   3.375832   2.162183
    12  N    5.785871   2.432864   2.800555   1.339288   2.405054
    13  H    5.352647   2.154282   3.377875   1.089644   3.802834
    14  C    5.710117   2.757115   2.400959   2.288004   1.393682
    15  H    5.167340   3.407845   2.163701   3.798506   1.085607
    16  H    6.671274   3.845367   3.394964   3.261330   2.160446
    17  P    2.387328   3.506974   4.175840   4.177222   5.216164
    18  P    3.066961   4.231144   4.933678   5.257890   6.311090
    19  O    1.878230   4.395443   4.629349   5.241916   5.593866
    20  O    3.353472   2.974057   3.654415   3.183303   4.337102
    21  O    3.717975   4.487330   5.421583   4.892041   6.452681
    22  O    3.163092   5.399096   5.951912   6.447699   7.301723
    23  O    3.416418   4.432466   4.808369   5.642776   6.188093
    24  O    4.426847   4.597442   5.591517   5.328334   6.911527
    25  H    3.148123   2.736921   3.060844   3.066579   3.606750
    26  H    2.764646   4.207125   4.322514   5.531530   5.677290
                   11         12         13         14         15
    11  H    0.000000
    12  N    3.884168   0.000000
    13  H    4.287006   2.063232   0.000000
    14  C    3.392895   1.342064   3.259179   0.000000
    15  H    2.510180   3.375877   4.887411   2.155063   0.000000
    16  H    4.306272   2.070469   4.127230   1.088577   2.492779
    17  P    4.229273   5.207464   4.226289   5.626335   5.959768
    18  P    4.625623   6.540773   5.218534   6.962993   7.020035
    19  O    4.414154   6.107880   5.505782   6.235696   6.106248
    20  O    4.083084   3.953952   3.297186   4.435656   5.151947
    21  O    5.572632   5.993970   4.600818   6.662483   7.290006
    22  O    5.519716   7.685188   6.434244   8.032092   7.917490
    23  O    4.265144   6.833612   5.810785   7.039973   6.744184
    24  O    5.509808   6.665596   5.007463   7.328063   7.750135
    25  H    3.477409   3.631898   3.487563   3.837897   4.323439
    26  H    3.620966   6.628274   5.868751   6.664565   6.122386
                   16         17         18         19         20
    16  H    0.000000
    17  P    6.593982   0.000000
    18  P    8.048060   3.109637   0.000000
    19  O    7.132445   1.526034   3.765491   0.000000
    20  O    5.300594   1.665053   4.438486   2.587442   0.000000
    21  O    7.620505   1.507313   3.325227   2.654703   2.510926
    22  O    9.095489   3.339034   1.514695   3.504825   4.944639
    23  O    8.102797   4.349148   1.675270   4.756661   5.485651
    24  O    8.407592   3.853992   1.513776   4.877265   4.944094
    25  H    4.666657   2.200121   4.809091   2.678978   0.967949
    26  H    7.700175   4.188681   2.143835   4.350582   5.267720
                   21         22         23         24         25
    21  O    0.000000
    22  O    3.420247   0.000000
    23  O    4.890160   2.594424   0.000000
    24  O    3.587915   2.628406   2.560096   0.000000
    25  H    3.356278   5.330897   5.613494   5.484116   0.000000
    26  H    5.001164   2.818978   0.973812   3.325843   5.243655
                   26
    26  H    0.000000
 Framework group  C1[X(C7H9NO7P2)]
 Deg. of freedom    72
                         Standard orientation:                         
 ---------------------------------------------------------------------
 Center     Atomic      Atomic             Coordinates (Angstroms)
 Number     Number       Type             X           Y           Z
 ---------------------------------------------------------------------
      1          6           0        0.363569   -0.920331   -0.643140
      2          1           0        0.181879   -0.700911   -1.698540
      3          1           0        0.161929   -1.991481   -0.516950
      4          6           0       -0.714271   -0.182191    0.182840
      5          8           0       -0.522551   -0.496581    1.588530
      6          1           0       -0.790820    0.338300    2.033700
      7          6           0        1.822999   -0.683541   -0.319680
      8          6           0        2.383289   -0.956932    0.935850
      9          6           0        2.706959   -0.242452   -1.315960
     10          6           0        3.750969   -0.765392    1.133510
     11          1           0        1.746939   -1.302801    1.741860
     12          7           0        4.023639   -0.062012   -1.150170
     13          1           0        2.317240   -0.021552   -2.309260
     14          6           0        4.528829   -0.320942    0.065920
     15          1           0        4.208869   -0.965722    2.097220
     16          1           0        5.599899   -0.169593    0.187990
     17         15           0       -0.723680    1.695679    0.070960
     18         15           0       -2.402191   -0.900650   -0.262980
     19          8           0       -1.023780    2.125230    1.504210
     20          8           0        0.845170    2.124959   -0.285170
     21          8           0       -1.528410    2.196310   -1.101120
     22          8           0       -3.491571   -0.131860    0.455710
     23          8           0       -2.190401   -2.375930    0.502020
     24          8           0       -2.518621   -1.191820   -1.743920
     25          1           0        1.431860    1.912229    0.454740
     26          1           0       -1.747981   -2.161610    1.342640
 ---------------------------------------------------------------------
 Rotational constants (GHZ):           0.6698934           0.2814083           0.2463883
 AO basis set in the form of general basis input (Overlap normalization):
      1 0
 S   6 1.00       0.000000000000
      0.3047524880D+04  0.1834737132D-02
      0.4573695180D+03  0.1403732281D-01
      0.1039486850D+03  0.6884262226D-01
      0.2921015530D+02  0.2321844432D+00
      0.9286662960D+01  0.4679413484D+00
      0.3163926960D+01  0.3623119853D+00
 SP   3 1.00       0.000000000000
      0.7868272350D+01 -0.1193324198D+00  0.6899906659D-01
      0.1881288540D+01 -0.1608541517D+00  0.3164239610D+00
      0.5442492580D+00  0.1143456438D+01  0.7443082909D+00
 SP   1 1.00       0.000000000000
      0.1687144782D+00  0.1000000000D+01  0.1000000000D+01
 D   1 1.00       0.000000000000
      0.8000000000D+00  0.1000000000D+01
 ****
      2 0
 S   3 1.00       0.000000000000
      0.1873113696D+02  0.3349460434D-01
      0.2825394365D+01  0.2347269535D+00
      0.6401216923D+00  0.8137573261D+00
 S   1 1.00       0.000000000000
      0.1612777588D+00  0.1000000000D+01
 P   1 1.00       0.000000000000
      0.1100000000D+01  0.1000000000D+01
 ****
      3 0
 S   3 1.00       0.000000000000
      0.1873113696D+02  0.3349460434D-01
      0.2825394365D+01  0.2347269535D+00
      0.6401216923D+00  0.8137573261D+00
 S   1 1.00       0.000000000000
      0.1612777588D+00  0.1000000000D+01
 P   1 1.00       0.000000000000
      0.1100000000D+01  0.1000000000D+01
 ****
      4 0
 S   6 1.00       0.000000000000
      0.3047524880D+04  0.1834737132D-02
      0.4573695180D+03  0.1403732281D-01
      0.1039486850D+03  0.6884262226D-01
      0.2921015530D+02  0.2321844432D+00
      0.9286662960D+01  0.4679413484D+00
      0.3163926960D+01  0.3623119853D+00
 SP   3 1.00       0.000000000000
      0.7868272350D+01 -0.1193324198D+00  0.6899906659D-01
      0.1881288540D+01 -0.1608541517D+00  0.3164239610D+00
      0.5442492580D+00  0.1143456438D+01  0.7443082909D+00
 SP   1 1.00       0.000000000000
      0.1687144782D+00  0.1000000000D+01  0.1000000000D+01
 D   1 1.00       0.000000000000
      0.8000000000D+00  0.1000000000D+01
 ****
      5 0
 S   6 1.00       0.000000000000
      0.5484671660D+04  0.1831074430D-02
      0.8252349460D+03  0.1395017220D-01
      0.1880469580D+03  0.6844507810D-01
      0.5296450000D+02  0.2327143360D+00
      0.1689757040D+02  0.4701928980D+00
      0.5799635340D+01  0.3585208530D+00
 SP   3 1.00       0.000000000000
      0.1553961625D+02 -0.1107775495D+00  0.7087426823D-01
      0.3599933586D+01 -0.1480262627D+00  0.3397528391D+00
      0.1013761750D+01  0.1130767015D+01  0.7271585773D+00
 SP   1 1.00       0.000000000000
      0.2700058226D+00  0.1000000000D+01  0.1000000000D+01
 D   1 1.00       0.000000000000
      0.8000000000D+00  0.1000000000D+01
 ****
      6 0
 S   3 1.00       0.000000000000
      0.1873113696D+02  0.3349460434D-01
      0.2825394365D+01  0.2347269535D+00
      0.6401216923D+00  0.8137573261D+00
 S   1 1.00       0.000000000000
      0.1612777588D+00  0.1000000000D+01
 P   1 1.00       0.000000000000
      0.1100000000D+01  0.1000000000D+01
 ****
      7 0
 S   6 1.00       0.000000000000
      0.3047524880D+04  0.1834737132D-02
      0.4573695180D+03  0.1403732281D-01
      0.1039486850D+03  0.6884262226D-01
      0.2921015530D+02  0.2321844432D+00
      0.9286662960D+01  0.4679413484D+00
      0.3163926960D+01  0.3623119853D+00
 SP   3 1.00       0.000000000000
      0.7868272350D+01 -0.1193324198D+00  0.6899906659D-01
      0.1881288540D+01 -0.1608541517D+00  0.3164239610D+00
      0.5442492580D+00  0.1143456438D+01  0.7443082909D+00
 SP   1 1.00       0.000000000000
      0.1687144782D+00  0.1000000000D+01  0.1000000000D+01
 D   1 1.00       0.000000000000
      0.8000000000D+00  0.1000000000D+01
 ****
      8 0
 S   6 1.00       0.000000000000
      0.3047524880D+04  0.1834737132D-02
      0.4573695180D+03  0.1403732281D-01
      0.1039486850D+03  0.6884262226D-01
      0.2921015530D+02  0.2321844432D+00
      0.9286662960D+01  0.4679413484D+00
      0.3163926960D+01  0.3623119853D+00
 SP   3 1.00       0.000000000000
      0.7868272350D+01 -0.1193324198D+00  0.6899906659D-01
      0.1881288540D+01 -0.1608541517D+00  0.3164239610D+00
      0.5442492580D+00  0.1143456438D+01  0.7443082909D+00
 SP   1 1.00       0.000000000000
      0.1687144782D+00  0.1000000000D+01  0.1000000000D+01
 D   1 1.00       0.000000000000
      0.8000000000D+00  0.1000000000D+01
 ****
      9 0
 S   6 1.00       0.000000000000
      0.3047524880D+04  0.1834737132D-02
      0.4573695180D+03  0.1403732281D-01
      0.1039486850D+03  0.6884262226D-01
      0.2921015530D+02  0.2321844432D+00
      0.9286662960D+01  0.4679413484D+00
      0.3163926960D+01  0.3623119853D+00
 SP   3 1.00       0.000000000000
      0.7868272350D+01 -0.1193324198D+00  0.6899906659D-01
      0.1881288540D+01 -0.1608541517D+00  0.3164239610D+00
      0.5442492580D+00  0.1143456438D+01  0.7443082909D+00
 SP   1 1.00       0.000000000000
      0.1687144782D+00  0.1000000000D+01  0.1000000000D+01
 D   1 1.00       0.000000000000
      0.8000000000D+00  0.1000000000D+01
 ****
     10 0
 S   6 1.00       0.000000000000
      0.3047524880D+04  0.1834737132D-02
      0.4573695180D+03  0.1403732281D-01
      0.1039486850D+03  0.6884262226D-01
      0.2921015530D+02  0.2321844432D+00
      0.9286662960D+01  0.4679413484D+00
      0.3163926960D+01  0.3623119853D+00
 SP   3 1.00       0.000000000000
      0.7868272350D+01 -0.1193324198D+00  0.6899906659D-01
      0.1881288540D+01 -0.1608541517D+00  0.3164239610D+00
      0.5442492580D+00  0.1143456438D+01  0.7443082909D+00
 SP   1 1.00       0.000000000000
      0.1687144782D+00  0.1000000000D+01  0.1000000000D+01
 D   1 1.00       0.000000000000
      0.8000000000D+00  0.1000000000D+01
 ****
     11 0
 S   3 1.00       0.000000000000
      0.1873113696D+02  0.3349460434D-01
      0.2825394365D+01  0.2347269535D+00
      0.6401216923D+00  0.8137573261D+00
 S   1 1.00       0.000000000000
      0.1612777588D+00  0.1000000000D+01
 P   1 1.00       0.000000000000
      0.1100000000D+01  0.1000000000D+01
 ****
     12 0
 S   6 1.00       0.000000000000
      0.4173511460D+04  0.1834772160D-02
      0.6274579110D+03  0.1399462700D-01
      0.1429020930D+03  0.6858655181D-01
      0.4023432930D+02  0.2322408730D+00
      0.1282021290D+02  0.4690699481D+00
      0.4390437010D+01  0.3604551991D+00
 SP   3 1.00       0.000000000000
      0.1162636186D+02 -0.1149611817D+00  0.6757974388D-01
      0.2716279807D+01 -0.1691174786D+00  0.3239072959D+00
      0.7722183966D+00  0.1145851947D+01  0.7408951398D+00
 SP   1 1.00       0.000000000000
      0.2120314975D+00  0.1000000000D+01  0.1000000000D+01
 D   1 1.00       0.000000000000
      0.8000000000D+00  0.1000000000D+01
 ****
     13 0
 S   3 1.00       0.000000000000
      0.1873113696D+02  0.3349460434D-01
      0.2825394365D+01  0.2347269535D+00
      0.6401216923D+00  0.8137573261D+00
 S   1 1.00       0.000000000000
      0.1612777588D+00  0.1000000000D+01
 P   1 1.00       0.000000000000
      0.1100000000D+01  0.1000000000D+01
 ****
     14 0
 S   6 1.00       0.000000000000
      0.3047524880D+04  0.1834737132D-02
      0.4573695180D+03  0.1403732281D-01
      0.1039486850D+03  0.6884262226D-01
      0.2921015530D+02  0.2321844432D+00
      0.9286662960D+01  0.4679413484D+00
      0.3163926960D+01  0.3623119853D+00
 SP   3 1.00       0.000000000000
      0.7868272350D+01 -0.1193324198D+00  0.6899906659D-01
      0.1881288540D+01 -0.1608541517D+00  0.3164239610D+00
      0.5442492580D+00  0.1143456438D+01  0.7443082909D+00
 SP   1 1.00       0.000000000000
      0.1687144782D+00  0.1000000000D+01  0.1000000000D+01
 D   1 1.00       0.000000000000
      0.8000000000D+00  0.1000000000D+01
 ****
     15 0
 S   3 1.00       0.000000000000
      0.1873113696D+02  0.3349460434D-01
      0.2825394365D+01  0.2347269535D+00
      0.6401216923D+00  0.8137573261D+00
 S   1 1.00       0.000000000000
      0.1612777588D+00  0.1000000000D+01
 P   1 1.00       0.000000000000
      0.1100000000D+01  0.1000000000D+01
 ****
     16 0
 S   3 1.00       0.000000000000
      0.1873113696D+02  0.3349460434D-01
      0.2825394365D+01  0.2347269535D+00
      0.6401216923D+00  0.8137573261D+00
 S   1 1.00       0.000000000000
      0.1612777588D+00  0.1000000000D+01
 P   1 1.00       0.000000000000
      0.1100000000D+01  0.1000000000D+01
 ****
     17 0
 S   6 1.00       0.000000000000
      0.1941330000D+05  0.1851598923D-02
      0.2909420000D+04  0.1420619174D-01
      0.6613640000D+03  0.6999945928D-01
      0.1857590000D+03  0.2400788603D+00
      0.5919430000D+02  0.4847617180D+00
      0.2003100000D+02  0.3351998050D+00
 SP   6 1.00       0.000000000000
      0.3394780000D+03 -0.2782170105D-02  0.4564616191D-02
      0.8101010000D+02 -0.3604990135D-01  0.3369357188D-01
      0.2587800000D+02 -0.1166310044D+00  0.1397548834D+00
      0.9452210000D+01  0.9683280364D-01  0.3393617168D+00
      0.3665660000D+01  0.6144180231D+00  0.4509206237D+00
      0.1467460000D+01  0.4037980152D+00  0.2385858009D+00
 SP   3 1.00       0.000000000000
      0.2156230000D+01 -0.2529241139D+00 -0.1776531273D-01
      0.7489970000D+00  0.3285184468D-01  0.2740581964D+00
      0.2831450000D+00  0.1081254762D+01  0.7854215630D+00
 SP   1 1.00       0.000000000000
      0.9983170000D-01  0.1000000000D+01  0.1000000000D+01
 D   1 1.00       0.000000000000
      0.5500000000D+00  0.1000000000D+01
 ****
     18 0
 S   6 1.00       0.000000000000
      0.1941330000D+05  0.1851598923D-02
      0.2909420000D+04  0.1420619174D-01
      0.6613640000D+03  0.6999945928D-01
      0.1857590000D+03  0.2400788603D+00
      0.5919430000D+02  0.4847617180D+00
      0.2003100000D+02  0.3351998050D+00
 SP   6 1.00       0.000000000000
      0.3394780000D+03 -0.2782170105D-02  0.4564616191D-02
      0.8101010000D+02 -0.3604990135D-01  0.3369357188D-01
      0.2587800000D+02 -0.1166310044D+00  0.1397548834D+00
      0.9452210000D+01  0.9683280364D-01  0.3393617168D+00
      0.3665660000D+01  0.6144180231D+00  0.4509206237D+00
      0.1467460000D+01  0.4037980152D+00  0.2385858009D+00
 SP   3 1.00       0.000000000000
      0.2156230000D+01 -0.2529241139D+00 -0.1776531273D-01
      0.7489970000D+00  0.3285184468D-01  0.2740581964D+00
      0.2831450000D+00  0.1081254762D+01  0.7854215630D+00
 SP   1 1.00       0.000000000000
      0.9983170000D-01  0.1000000000D+01  0.1000000000D+01
 D   1 1.00       0.000000000000
      0.5500000000D+00  0.1000000000D+01
 ****
     19 0
 S   6 1.00       0.000000000000
      0.5484671660D+04  0.1831074430D-02
      0.8252349460D+03  0.1395017220D-01
      0.1880469580D+03  0.6844507810D-01
      0.5296450000D+02  0.2327143360D+00
      0.1689757040D+02  0.4701928980D+00
      0.5799635340D+01  0.3585208530D+00
 SP   3 1.00       0.000000000000
      0.1553961625D+02 -0.1107775495D+00  0.7087426823D-01
      0.3599933586D+01 -0.1480262627D+00  0.3397528391D+00
      0.1013761750D+01  0.1130767015D+01  0.7271585773D+00
 SP   1 1.00       0.000000000000
      0.2700058226D+00  0.1000000000D+01  0.1000000000D+01
 D   1 1.00       0.000000000000
      0.8000000000D+00  0.1000000000D+01
 ****
     20 0
 S   6 1.00       0.000000000000
      0.5484671660D+04  0.1831074430D-02
      0.8252349460D+03  0.1395017220D-01
      0.1880469580D+03  0.6844507810D-01
      0.5296450000D+02  0.2327143360D+00
      0.1689757040D+02  0.4701928980D+00
      0.5799635340D+01  0.3585208530D+00
 SP   3 1.00       0.000000000000
      0.1553961625D+02 -0.1107775495D+00  0.7087426823D-01
      0.3599933586D+01 -0.1480262627D+00  0.3397528391D+00
      0.1013761750D+01  0.1130767015D+01  0.7271585773D+00
 SP   1 1.00       0.000000000000
      0.2700058226D+00  0.1000000000D+01  0.1000000000D+01
 D   1 1.00       0.000000000000
      0.8000000000D+00  0.1000000000D+01
 ****
     21 0
 S   6 1.00       0.000000000000
      0.5484671660D+04  0.1831074430D-02
      0.8252349460D+03  0.1395017220D-01
      0.1880469580D+03  0.6844507810D-01
      0.5296450000D+02  0.2327143360D+00
      0.1689757040D+02  0.4701928980D+00
      0.5799635340D+01  0.3585208530D+00
 SP   3 1.00       0.000000000000
      0.1553961625D+02 -0.1107775495D+00  0.7087426823D-01
      0.3599933586D+01 -0.1480262627D+00  0.3397528391D+00
      0.1013761750D+01  0.1130767015D+01  0.7271585773D+00
 SP   1 1.00       0.000000000000
      0.2700058226D+00  0.1000000000D+01  0.1000000000D+01
 D   1 1.00       0.000000000000
      0.8000000000D+00  0.1000000000D+01
 ****
     22 0
 S   6 1.00       0.000000000000
      0.5484671660D+04  0.1831074430D-02
      0.8252349460D+03  0.1395017220D-01
      0.1880469580D+03  0.6844507810D-01
      0.5296450000D+02  0.2327143360D+00
      0.1689757040D+02  0.4701928980D+00
      0.5799635340D+01  0.3585208530D+00
 SP   3 1.00       0.000000000000
      0.1553961625D+02 -0.1107775495D+00  0.7087426823D-01
      0.3599933586D+01 -0.1480262627D+00  0.3397528391D+00
      0.1013761750D+01  0.1130767015D+01  0.7271585773D+00
 SP   1 1.00       0.000000000000
      0.2700058226D+00  0.1000000000D+01  0.1000000000D+01
 D   1 1.00       0.000000000000
      0.8000000000D+00  0.1000000000D+01
 ****
     23 0
 S   6 1.00       0.000000000000
      0.5484671660D+04  0.1831074430D-02
      0.8252349460D+03  0.1395017220D-01
      0.1880469580D+03  0.6844507810D-01
      0.5296450000D+02  0.2327143360D+00
      0.1689757040D+02  0.4701928980D+00
      0.5799635340D+01  0.3585208530D+00
 SP   3 1.00       0.000000000000
      0.1553961625D+02 -0.1107775495D+00  0.7087426823D-01
      0.3599933586D+01 -0.1480262627D+00  0.3397528391D+00
      0.1013761750D+01  0.1130767015D+01  0.7271585773D+00
 SP   1 1.00       0.000000000000
      0.2700058226D+00  0.1000000000D+01  0.1000000000D+01
 D   1 1.00       0.000000000000
      0.8000000000D+00  0.1000000000D+01
 ****
     24 0
 S   6 1.00       0.000000000000
      0.5484671660D+04  0.1831074430D-02
      0.8252349460D+03  0.1395017220D-01
      0.1880469580D+03  0.6844507810D-01
      0.5296450000D+02  0.2327143360D+00
      0.1689757040D+02  0.4701928980D+00
      0.5799635340D+01  0.3585208530D+00
 SP   3 1.00       0.000000000000
      0.1553961625D+02 -0.1107775495D+00  0.7087426823D-01
      0.3599933586D+01 -0.1480262627D+00  0.3397528391D+00
      0.1013761750D+01  0.1130767015D+01  0.7271585773D+00
 SP   1 1.00       0.000000000000
      0.2700058226D+00  0.1000000000D+01  0.1000000000D+01
 D   1 1.00       0.000000000000
      0.8000000000D+00  0.1000000000D+01
 ****
     25 0
 S   3 1.00       0.000000000000
      0.1873113696D+02  0.3349460434D-01
      0.2825394365D+01  0.2347269535D+00
      0.6401216923D+00  0.8137573261D+00
 S   1 1.00       0.000000000000
      0.1612777588D+00  0.1000000000D+01
 P   1 1.00       0.000000000000
      0.1100000000D+01  0.1000000000D+01
 ****
     26 0
 S   3 1.00       0.000000000000
      0.1873113696D+02  0.3349460434D-01
      0.2825394365D+01  0.2347269535D+00
      0.6401216923D+00  0.8137573261D+00
 S   1 1.00       0.000000000000
      0.1612777588D+00  0.1000000000D+01
 P   1 1.00       0.000000000000
      0.1100000000D+01  0.1000000000D+01
 ****

   308 basis functions,   587 primitive gaussians,   308 cartesian basis functions
    74 alpha electrons       73 beta electrons
       nuclear repulsion energy      1632.0776432005 Hartrees.
 NAtoms=   26 NActive=   26 NUniq=   26 SFac= 1.00D+00 NAtFMM=   60 NAOKFM=F Big=F
 ------------------------------------------------------------------------------
 Polarizable Continuum Model (PCM)
 =================================
 Model                : PCM.
 Atomic radii         : UFF (Universal Force Field).
 Polarization charges : Total charges.
 Charge compensation  : None.
 Solution method      : On-the-fly selection.
 Cavity type          : Scaled VdW (van der Waals Surface) (Alpha=1.100).
 Cavity algorithm     : GePol (No added spheres)
                        Default sphere list used, NSphG=   26.
                        Lebedev-Laikov grids with approx.  5.0 points / Ang**2.
                        Smoothing algorithm: York/Karplus (Gamma=1.0000).
                        Polarization charges: spherical gaussians, with
                                              point-specific exponents (IZeta= 3).
                        Self-potential: point-specific (ISelfS= 7).
                        Self-field    : sphere-specific E.n sum rule (ISelfD= 2).
 Solvent              : Water, Eps=  78.355300 Eps(inf)=   1.777849
 ------------------------------------------------------------------------------
 ExpMin= 9.98D-02 ExpMax= 1.94D+04 ExpMxC= 2.91D+03 IAcc=3 IRadAn=         5 AccDes= 0.00D+00
 Harris functional with IExCor=  402 and IRadAn=       5 diagonalized for initial guess.
 HarFok:  IExCor=  402 AccDes= 0.00D+00 IRadAn=         5 IDoV= 1 UseB2=F ITyADJ=14
 ICtDFT=  3500011 ScaDFX=  1.000000  1.000000  1.000000  1.000000
 FoFCou: FMM=F IPFlag=           0 FMFlag=      100000 FMFlg1=           0
         NFxFlg=           0 DoJE=T BraDBF=F KetDBF=T FulRan=T
         wScrn=  0.000000 ICntrl=       500 IOpCl=  0 I1Cent=   200000004 NGrid=           0
         NMat0=    1 NMatS0=      1 NMatT0=    0 NMatD0=    1 NMtDS0=    0 NMtDT0=    0
 Petite list used in FoFCou.
 Initial guess <Sx>= 0.0000 <Sy>= 0.0000 <Sz>= 0.5000 <S**2>= 0.7500 S= 0.5000
 Inv3:  Mode=1 IEnd=    14692107.
 Iteration    1 A*A^-1 deviation from unit magnitude is 9.77D-15 for    273.
 Iteration    1 A*A^-1 deviation from orthogonality  is 4.87D-15 for   2036   1894.
 Iteration    1 A^-1*A deviation from unit magnitude is 9.77D-15 for    273.
 Iteration    1 A^-1*A deviation from orthogonality  is 5.07D-14 for   1071   1064.
 Restarting incremental Fock formation.
 Error on total polarization charges =  0.01013
 SCF Done:  E(UB3LYP) =  -1536.65705520     A.U. after   22 cycles
            NFock= 22  Conv=0.37D-08     -V/T= 2.0065
 <Sx>= 0.0000 <Sy>= 0.0000 <Sz>= 0.5000 <S**2>= 0.7583 S= 0.5041
 <L.S>= 0.000000000000E+00
 Annihilation of the first spin contaminant:
 S**2 before annihilation     0.7583,   after     0.7500

 **********************************************************************

            Population analysis using the SCF density.

 **********************************************************************

 Orbital symmetries:
 Alpha Orbitals:
       Occupied  (A) (A) (A) (A) (A) (A) (A) (A) (A) (A) (A) (A)
                 (A) (A) (A) (A) (A) (A) (A) (A) (A) (A) (A) (A)
                 (A) (A) (A) (A) (A) (A) (A) (A) (A) (A) (A) (A)
                 (A) (A) (A) (A) (A) (A) (A) (A) (A) (A) (A) (A)
                 (A) (A) (A) (A) (A) (A) (A) (A) (A) (A) (A) (A)
                 (A) (A) (A) (A) (A) (A) (A) (A) (A) (A) (A) (A)
                 (A) (A)
       Virtual   (A) (A) (A) (A) (A) (A) (A) (A) (A) (A) (A) (A)
                 (A) (A) (A) (A) (A) (A) (A) (A) (A) (A) (A) (A)
                 (A) (A) (A) (A) (A) (A) (A) (A) (A) (A) (A) (A)
                 (A) (A) (A) (A) (A) (A) (A) (A) (A) (A) (A) (A)
                 (A) (A) (A) (A) (A) (A) (A) (A) (A) (A) (A) (A)
                 (A) (A) (A) (A) (A) (A) (A) (A) (A) (A) (A) (A)
                 (A) (A) (A) (A) (A) (A) (A) (A) (A) (A) (A) (A)
                 (A) (A) (A) (A) (A) (A) (A) (A) (A) (A) (A) (A)
                 (A) (A) (A) (A) (A) (A) (A) (A) (A) (A) (A) (A)
                 (A) (A) (A) (A) (A) (A) (A) (A) (A) (A) (A) (A)
                 (A) (A) (A) (A) (A) (A) (A) (A) (A) (A) (A) (A)
                 (A) (A) (A) (A) (A) (A) (A) (A) (A) (A) (A) (A)
                 (A) (A) (A) (A) (A) (A) (A) (A) (A) (A) (A) (A)
                 (A) (A) (A) (A) (A) (A) (A) (A) (A) (A) (A) (A)
                 (A) (A) (A) (A) (A) (A) (A) (A) (A) (A) (A) (A)
                 (A) (A) (A) (A) (A) (A) (A) (A) (A) (A) (A) (A)
                 (A) (A) (A) (A) (A) (A) (A) (A) (A) (A) (A) (A)
                 (A) (A) (A) (A) (A) (A) (A) (A) (A) (A) (A) (A)
                 (A) (A) (A) (A) (A) (A) (A) (A) (A) (A) (A) (A)
                 (A) (A) (A) (A) (A) (A)
 Beta  Orbitals:
       Occupied  (A) (A) (A) (A) (A) (A) (A) (A) (A) (A) (A) (A)
                 (A) (A) (A) (A) (A) (A) (A) (A) (A) (A) (A) (A)
                 (A) (A) (A) (A) (A) (A) (A) (A) (A) (A) (A) (A)
                 (A) (A) (A) (A) (A) (A) (A) (A) (A) (A) (A) (A)
                 (A) (A) (A) (A) (A) (A) (A) (A) (A) (A) (A) (A)
                 (A) (A) (A) (A) (A) (A) (A) (A) (A) (A) (A) (A)
                 (A)
       Virtual   (A) (A) (A) (A) (A) (A) (A) (A) (A) (A) (A) (A)
                 (A) (A) (A) (A) (A) (A) (A) (A) (A) (A) (A) (A)
                 (A) (A) (A) (A) (A) (A) (A) (A) (A) (A) (A) (A)
                 (A) (A) (A) (A) (A) (A) (A) (A) (A) (A) (A) (A)
                 (A) (A) (A) (A) (A) (A) (A) (A) (A) (A) (A) (A)
                 (A) (A) (A) (A) (A) (A) (A) (A) (A) (A) (A) (A)
                 (A) (A) (A) (A) (A) (A) (A) (A) (A) (A) (A) (A)
                 (A) (A) (A) (A) (A) (A) (A) (A) (A) (A) (A) (A)
                 (A) (A) (A) (A) (A) (A) (A) (A) (A) (A) (A) (A)
                 (A) (A) (A) (A) (A) (A) (A) (A) (A) (A) (A) (A)
                 (A) (A) (A) (A) (A) (A) (A) (A) (A) (A) (A) (A)
                 (A) (A) (A) (A) (A) (A) (A) (A) (A) (A) (A) (A)
                 (A) (A) (A) (A) (A) (A) (A) (A) (A) (A) (A) (A)
                 (A) (A) (A) (A) (A) (A) (A) (A) (A) (A) (A) (A)
                 (A) (A) (A) (A) (A) (A) (A) (A) (A) (A) (A) (A)
                 (A) (A) (A) (A) (A) (A) (A) (A) (A) (A) (A) (A)
                 (A) (A) (A) (A) (A) (A) (A) (A) (A) (A) (A) (A)
                 (A) (A) (A) (A) (A) (A) (A) (A) (A) (A) (A) (A)
                 (A) (A) (A) (A) (A) (A) (A) (A) (A) (A) (A) (A)
                 (A) (A) (A) (A) (A) (A) (A)
 The electronic state is 2-A.
 Alpha  occ. eigenvalues --  -77.14364 -77.13155 -19.12307 -19.11872 -19.11423
 Alpha  occ. eigenvalues --  -19.05986 -19.05485 -19.04672 -19.04464 -14.22728
 Alpha  occ. eigenvalues --  -10.19704 -10.15160 -10.14312 -10.14014 -10.12592
 Alpha  occ. eigenvalues --  -10.12418 -10.09728  -6.59208  -6.58031  -4.75696
 Alpha  occ. eigenvalues --   -4.75427  -4.75400  -4.74532  -4.74240  -4.74208
 Alpha  occ. eigenvalues --   -1.00279  -0.99055  -0.97333  -0.91839  -0.90941
 Alpha  occ. eigenvalues --   -0.88236  -0.86942  -0.85858  -0.74908  -0.70880
 Alpha  occ. eigenvalues --   -0.67246  -0.59287  -0.55782  -0.53920  -0.52693
 Alpha  occ. eigenvalues --   -0.50651  -0.48399  -0.45818  -0.44716  -0.41209
 Alpha  occ. eigenvalues --   -0.40749  -0.40043  -0.38800  -0.37207  -0.36717
 Alpha  occ. eigenvalues --   -0.36125  -0.34385  -0.33915  -0.33714  -0.32929
 Alpha  occ. eigenvalues --   -0.32513  -0.32165  -0.31792  -0.29178  -0.28821
 Alpha  occ. eigenvalues --   -0.28479  -0.27315  -0.26617  -0.25553  -0.24375
 Alpha  occ. eigenvalues --   -0.23455  -0.22699  -0.22546  -0.22261  -0.21126
 Alpha  occ. eigenvalues --   -0.20223  -0.19325  -0.18301  -0.01702
 Alpha virt. eigenvalues --    0.05316   0.09793   0.11823   0.12648   0.13499
 Alpha virt. eigenvalues --    0.14902   0.16036   0.17728   0.18208   0.18779
 Alpha virt. eigenvalues --    0.19293   0.20289   0.21429   0.21740   0.21969
 Alpha virt. eigenvalues --    0.23004   0.23530   0.24065   0.28364   0.28898
 Alpha virt. eigenvalues --    0.30214   0.31008   0.32284   0.35837   0.36683
 Alpha virt. eigenvalues --    0.37813   0.39458   0.41524   0.42072   0.43767
 Alpha virt. eigenvalues --    0.44618   0.46973   0.48448   0.49331   0.50995
 Alpha virt. eigenvalues --    0.52137   0.57275   0.60343   0.60447   0.61893
 Alpha virt. eigenvalues --    0.62435   0.64033   0.64838   0.65186   0.65781
 Alpha virt. eigenvalues --    0.66567   0.67629   0.69969   0.71413   0.71944
 Alpha virt. eigenvalues --    0.72294   0.74217   0.75501   0.77622   0.78950
 Alpha virt. eigenvalues --    0.80824   0.81807   0.84313   0.84787   0.85113
 Alpha virt. eigenvalues --    0.85782   0.86567   0.86908   0.88304   0.90352
 Alpha virt. eigenvalues --    0.90767   0.90849   0.91401   0.93924   0.95268
 Alpha virt. eigenvalues --    0.95635   0.96848   0.99227   0.99386   1.00189
 Alpha virt. eigenvalues --    1.01652   1.02326   1.04648   1.05496   1.06183
 Alpha virt. eigenvalues --    1.07537   1.08386   1.09127   1.09870   1.11165
 Alpha virt. eigenvalues --    1.11181   1.11878   1.13281   1.13750   1.15454
 Alpha virt. eigenvalues --    1.17756   1.18307   1.19183   1.20951   1.22596
 Alpha virt. eigenvalues --    1.23320   1.24430   1.25970   1.27589   1.29781
 Alpha virt. eigenvalues --    1.30358   1.32571   1.33083   1.35648   1.39003
 Alpha virt. eigenvalues --    1.40069   1.42243   1.43860   1.44444   1.47438
 Alpha virt. eigenvalues --    1.48293   1.51177   1.51968   1.53806   1.54762
 Alpha virt. eigenvalues --    1.56793   1.58622   1.60750   1.61742   1.64490
 Alpha virt. eigenvalues --    1.65148   1.68229   1.72384   1.72791   1.76483
 Alpha virt. eigenvalues --    1.77821   1.79781   1.80568   1.82673   1.84792
 Alpha virt. eigenvalues --    1.85387   1.86273   1.86688   1.88034   1.88767
 Alpha virt. eigenvalues --    1.89371   1.90095   1.90361   1.91448   1.92349
 Alpha virt. eigenvalues --    1.94649   1.95091   1.96140   1.97351   1.97728
 Alpha virt. eigenvalues --    1.99547   2.03552   2.04378   2.04850   2.06448
 Alpha virt. eigenvalues --    2.08201   2.09267   2.11406   2.14115   2.14328
 Alpha virt. eigenvalues --    2.15903   2.16877   2.17495   2.19123   2.23555
 Alpha virt. eigenvalues --    2.24483   2.26822   2.28383   2.30507   2.32399
 Alpha virt. eigenvalues --    2.34672   2.37047   2.38240   2.39004   2.40298
 Alpha virt. eigenvalues --    2.42235   2.43192   2.43910   2.45135   2.48146
 Alpha virt. eigenvalues --    2.48859   2.52589   2.53798   2.55793   2.56545
 Alpha virt. eigenvalues --    2.57187   2.58926   2.60619   2.63494   2.67270
 Alpha virt. eigenvalues --    2.67876   2.68648   2.70545   2.71651   2.73461
 Alpha virt. eigenvalues --    2.75385   2.76201   2.76570   2.79328   2.81027
 Alpha virt. eigenvalues --    2.83048   2.83158   2.86592   2.88114   2.89100
 Alpha virt. eigenvalues --    2.90950   2.93200   2.98030   3.03359   3.06738
 Alpha virt. eigenvalues --    3.14071   3.24971   3.29620   3.32708   3.37446
 Alpha virt. eigenvalues --    3.43881   3.45706   3.47152   3.50712   3.52325
 Alpha virt. eigenvalues --    3.53790   3.56871   3.62270   3.83835   3.86690
 Alpha virt. eigenvalues --    3.89654   3.99836   4.00901   4.09654   4.16257
 Alpha virt. eigenvalues --    4.18919   4.24414   4.27359   4.29549   4.40186
 Alpha virt. eigenvalues --    4.44093   4.54552   4.69787   4.83147
  Beta  occ. eigenvalues --  -77.14364 -77.13154 -19.12300 -19.11865 -19.11422
  Beta  occ. eigenvalues --  -19.05986 -19.05485 -19.04671 -19.04463 -14.21992
  Beta  occ. eigenvalues --  -10.19692 -10.15167 -10.14177 -10.13884 -10.12576
  Beta  occ. eigenvalues --  -10.12433 -10.09108  -6.59208  -6.58031  -4.75696
  Beta  occ. eigenvalues --   -4.75427  -4.75400  -4.74531  -4.74240  -4.74208
  Beta  occ. eigenvalues --   -1.00271  -0.99049  -0.97326  -0.91836  -0.90939
  Beta  occ. eigenvalues --   -0.88235  -0.86941  -0.84809  -0.74480  -0.70167
  Beta  occ. eigenvalues --   -0.66857  -0.59089  -0.54953  -0.53803  -0.52432
  Beta  occ. eigenvalues --   -0.50619  -0.48366  -0.45748  -0.44416  -0.41096
  Beta  occ. eigenvalues --   -0.40469  -0.39846  -0.38700  -0.37152  -0.36677
  Beta  occ. eigenvalues --   -0.36076  -0.34305  -0.33767  -0.33611  -0.32434
  Beta  occ. eigenvalues --   -0.32160  -0.31621  -0.30930  -0.29007  -0.28700
  Beta  occ. eigenvalues --   -0.28298  -0.27290  -0.26584  -0.25541  -0.24318
  Beta  occ. eigenvalues --   -0.23422  -0.22689  -0.22405  -0.21121  -0.20137
  Beta  occ. eigenvalues --   -0.19182  -0.17790  -0.17543
  Beta virt. eigenvalues --    0.05786   0.06845   0.09831   0.11860   0.12757
  Beta virt. eigenvalues --    0.13523   0.14999   0.16067   0.18144   0.18522
  Beta virt. eigenvalues --    0.18864   0.20250   0.20498   0.21502   0.21822
  Beta virt. eigenvalues --    0.22452   0.23108   0.23843   0.24962   0.28452
  Beta virt. eigenvalues --    0.29042   0.30410   0.31377   0.32513   0.35889
  Beta virt. eigenvalues --    0.36723   0.38049   0.39643   0.41556   0.42243
  Beta virt. eigenvalues --    0.43875   0.44732   0.47035   0.48534   0.49446
  Beta virt. eigenvalues --    0.51060   0.52506   0.57952   0.60457   0.60895
  Beta virt. eigenvalues --    0.62131   0.62839   0.64371   0.65269   0.65641
  Beta virt. eigenvalues --    0.66310   0.67397   0.68064   0.70332   0.72064
  Beta virt. eigenvalues --    0.72433   0.72620   0.74453   0.75870   0.77798
  Beta virt. eigenvalues --    0.79274   0.80934   0.81932   0.84507   0.84965
  Beta virt. eigenvalues --    0.85292   0.85861   0.86621   0.87077   0.88607
  Beta virt. eigenvalues --    0.90592   0.90988   0.91522   0.92777   0.94144
  Beta virt. eigenvalues --    0.95346   0.95753   0.97087   0.99247   0.99551
  Beta virt. eigenvalues --    1.00317   1.01921   1.02391   1.04741   1.05624
  Beta virt. eigenvalues --    1.06356   1.07597   1.08413   1.09153   1.09930
  Beta virt. eigenvalues --    1.11209   1.11345   1.12002   1.13329   1.13869
  Beta virt. eigenvalues --    1.15734   1.17837   1.18442   1.19267   1.20994
  Beta virt. eigenvalues --    1.22683   1.23472   1.24485   1.26139   1.27674
  Beta virt. eigenvalues --    1.29850   1.30413   1.32743   1.33910   1.35928
  Beta virt. eigenvalues --    1.39121   1.40628   1.42742   1.43999   1.44680
  Beta virt. eigenvalues --    1.47786   1.49225   1.51918   1.52302   1.54266
  Beta virt. eigenvalues --    1.55552   1.57010   1.58793   1.60976   1.61858
  Beta virt. eigenvalues --    1.64514   1.65175   1.68297   1.72671   1.72876
  Beta virt. eigenvalues --    1.76576   1.77923   1.80098   1.80861   1.82795
  Beta virt. eigenvalues --    1.85002   1.85452   1.86415   1.86743   1.88073
  Beta virt. eigenvalues --    1.89076   1.89523   1.90156   1.90461   1.91510
  Beta virt. eigenvalues --    1.92398   1.94761   1.95187   1.96569   1.97555
  Beta virt. eigenvalues --    1.97967   1.99783   2.03977   2.04705   2.05093
  Beta virt. eigenvalues --    2.06661   2.08416   2.09457   2.11526   2.14196
  Beta virt. eigenvalues --    2.14370   2.16242   2.17221   2.18228   2.19937
  Beta virt. eigenvalues --    2.23773   2.24579   2.27055   2.28526   2.30600
  Beta virt. eigenvalues --    2.32462   2.34862   2.37392   2.38495   2.39775
  Beta virt. eigenvalues --    2.40743   2.42753   2.43515   2.44395   2.45611
  Beta virt. eigenvalues --    2.48246   2.49186   2.53083   2.53956   2.55954
  Beta virt. eigenvalues --    2.56912   2.57497   2.59373   2.61142   2.63629
  Beta virt. eigenvalues --    2.67348   2.67982   2.68659   2.70986   2.71776
  Beta virt. eigenvalues --    2.73736   2.76119   2.76686   2.77020   2.79704
  Beta virt. eigenvalues --    2.81201   2.83185   2.83318   2.86765   2.88199
  Beta virt. eigenvalues --    2.89131   2.91044   2.93370   2.98052   3.03415
  Beta virt. eigenvalues --    3.07019   3.14271   3.25406   3.29678   3.32842
  Beta virt. eigenvalues --    3.37564   3.43921   3.45730   3.47314   3.50779
  Beta virt. eigenvalues --    3.52338   3.53838   3.56879   3.62273   3.83843
  Beta virt. eigenvalues --    3.86998   3.89666   3.99843   4.00905   4.09672
  Beta virt. eigenvalues --    4.16274   4.19645   4.24510   4.28068   4.30210
  Beta virt. eigenvalues --    4.40784   4.44298   4.54744   4.69888   4.83663
     Alpha Molecular Orbital Coefficients:
                           1         2         3         4         5
                           O         O         O         O         O
     Eigenvalues --   -77.14364 -77.13155 -19.12307 -19.11872 -19.11423
   1 1   C  1S         -0.00001  -0.00001   0.00001   0.00001  -0.00001
   2        2S         -0.00002  -0.00000   0.00001   0.00010  -0.00007
   3        2PX         0.00004   0.00003   0.00001  -0.00004   0.00006
   4        2PY        -0.00002   0.00000  -0.00001   0.00001   0.00001
   5        2PZ        -0.00002  -0.00000   0.00000   0.00006   0.00002
   6        3S          0.00034  -0.00021  -0.00024   0.00014  -0.00018
   7        3PX         0.00015  -0.00008   0.00043  -0.00016  -0.00121
   8        3PY        -0.00018  -0.00015  -0.00000   0.00016  -0.00025
   9        3PZ         0.00010  -0.00023   0.00012  -0.00023  -0.00003
  10        4XX        -0.00002  -0.00004   0.00002   0.00003  -0.00004
  11        4YY        -0.00006  -0.00001   0.00005   0.00003  -0.00001
  12        4ZZ        -0.00003  -0.00002   0.00002  -0.00004  -0.00001
  13        4XY         0.00002   0.00002   0.00003   0.00001   0.00001
  14        4XZ        -0.00000   0.00001  -0.00000  -0.00001  -0.00003
  15        4YZ        -0.00002   0.00000   0.00000   0.00000  -0.00000
  16 2   H  1S          0.00002   0.00001  -0.00002  -0.00002  -0.00006
  17        2S         -0.00008  -0.00028   0.00030  -0.00018   0.00009
  18        3PX         0.00001   0.00004   0.00000   0.00003   0.00004
  19        3PY        -0.00002   0.00001   0.00002  -0.00001   0.00001
  20        3PZ        -0.00001  -0.00002   0.00002  -0.00001   0.00001
  21 3   H  1S         -0.00003  -0.00001   0.00002   0.00002  -0.00003
  22        2S         -0.00007  -0.00021   0.00002   0.00017  -0.00006
  23        3PX        -0.00001   0.00003  -0.00002  -0.00002   0.00001
  24        3PY         0.00001  -0.00002  -0.00001   0.00001  -0.00002
  25        3PZ        -0.00000   0.00001   0.00000   0.00005   0.00001
  26 4   C  1S         -0.00004  -0.00004  -0.00001   0.00001  -0.00001
  27        2S         -0.00006  -0.00005  -0.00008   0.00016  -0.00006
  28        2PX         0.00000  -0.00004  -0.00000   0.00007  -0.00001
  29        2PY         0.00004  -0.00004   0.00002  -0.00009  -0.00005
  30        2PZ         0.00002  -0.00001   0.00001   0.00027   0.00001
  31        3S          0.00095   0.00091   0.00042  -0.00180   0.00044
  32        3PX         0.00000  -0.00034   0.00017  -0.00042  -0.00040
  33        3PY         0.00048  -0.00017   0.00019   0.00040   0.00022
  34        3PZ         0.00002  -0.00004  -0.00068  -0.00091  -0.00001
  35        4XX        -0.00008  -0.00011  -0.00001   0.00006   0.00002
  36        4YY        -0.00015  -0.00008   0.00004   0.00007  -0.00002
  37        4ZZ        -0.00006  -0.00008  -0.00006   0.00034  -0.00002
  38        4XY         0.00001  -0.00003   0.00001   0.00000   0.00002
  39        4XZ        -0.00000  -0.00002  -0.00002   0.00005   0.00003
  40        4YZ        -0.00000  -0.00001  -0.00000  -0.00007   0.00000
  41 5   O  1S          0.00000  -0.00000   0.00012   0.99270  -0.00006
  42        2S          0.00001  -0.00001  -0.00014   0.02571  -0.00011
  43        2PX         0.00000   0.00001  -0.00000  -0.00037   0.00002
  44        2PY        -0.00002  -0.00000  -0.00003   0.00081   0.00002
  45        2PZ         0.00000   0.00002   0.00003  -0.00025  -0.00001
  46        3S         -0.00017  -0.00013   0.00070   0.01281   0.00047
  47        3PX        -0.00002   0.00005  -0.00004   0.00001  -0.00014
  48        3PY        -0.00004   0.00003   0.00011  -0.00003  -0.00020
  49        3PZ         0.00015   0.00008  -0.00023  -0.00046  -0.00005
  50        4XX        -0.00003   0.00000  -0.00011  -0.00822  -0.00005
  51        4YY         0.00003  -0.00004  -0.00009  -0.00823  -0.00007
  52        4ZZ         0.00000  -0.00002  -0.00007  -0.00832  -0.00008
  53        4XY        -0.00001   0.00002   0.00000   0.00001   0.00002
  54        4XZ        -0.00000   0.00001   0.00001  -0.00003  -0.00001
  55        4YZ         0.00002  -0.00001  -0.00002   0.00005   0.00001
  56 6   H  1S         -0.00002   0.00002  -0.00006   0.00038  -0.00003
  57        2S         -0.00024  -0.00013   0.00002  -0.00155   0.00011
  58        3PX         0.00000   0.00002   0.00001  -0.00002   0.00002
  59        3PY         0.00002   0.00000  -0.00001   0.00005  -0.00000
  60        3PZ        -0.00001   0.00002   0.00000   0.00009  -0.00001
  61 7   C  1S          0.00002  -0.00001   0.00002  -0.00002  -0.00001
  62        2S          0.00008  -0.00001   0.00004  -0.00013  -0.00005
  63        2PX        -0.00003   0.00002  -0.00003   0.00001   0.00003
  64        2PY         0.00001   0.00000   0.00005  -0.00000  -0.00000
  65        2PZ         0.00002  -0.00000  -0.00004   0.00002  -0.00000
  66        3S         -0.00056  -0.00005  -0.00055   0.00147   0.00046
  67        3PX         0.00030  -0.00047   0.00021   0.00011  -0.00103
  68        3PY         0.00006  -0.00005   0.00000  -0.00017  -0.00011
  69        3PZ        -0.00024   0.00006  -0.00001   0.00093  -0.00027
  70        4XX         0.00003   0.00000   0.00003   0.00001   0.00002
  71        4YY         0.00005  -0.00001   0.00007  -0.00003  -0.00002
  72        4ZZ         0.00004  -0.00002   0.00005   0.00004  -0.00002
  73        4XY         0.00001  -0.00000  -0.00001   0.00001   0.00001
  74        4XZ        -0.00001   0.00000   0.00000  -0.00001   0.00001
  75        4YZ        -0.00000   0.00000  -0.00001  -0.00001   0.00001
  76 8   C  1S         -0.00000  -0.00000  -0.00002   0.00000  -0.00000
  77        2S         -0.00002  -0.00001  -0.00008  -0.00004  -0.00002
  78        2PX        -0.00001   0.00000   0.00001  -0.00009  -0.00000
  79        2PY         0.00001   0.00000  -0.00005   0.00005  -0.00000
  80        2PZ         0.00000   0.00000   0.00001  -0.00002   0.00000
  81        3S          0.00025   0.00015   0.00055   0.00025   0.00036
  82        3PX        -0.00008   0.00013  -0.00000   0.00106   0.00020
  83        3PY         0.00002   0.00004   0.00022  -0.00039   0.00013
  84        3PZ        -0.00014  -0.00012  -0.00015   0.00131  -0.00031
  85        4XX         0.00002  -0.00001  -0.00004   0.00010  -0.00001
  86        4YY         0.00001  -0.00001  -0.00005   0.00001  -0.00001
  87        4ZZ        -0.00000   0.00001  -0.00006  -0.00002   0.00001
  88        4XY        -0.00000   0.00000  -0.00000   0.00003   0.00000
  89        4XZ         0.00001  -0.00000   0.00001  -0.00005  -0.00000
  90        4YZ        -0.00000  -0.00000  -0.00001   0.00002  -0.00001
  91 9   C  1S          0.00000  -0.00000   0.00002   0.00000  -0.00000
  92        2S          0.00001  -0.00001   0.00004   0.00002  -0.00002
  93        2PX        -0.00000  -0.00000  -0.00005   0.00001   0.00000
  94        2PY         0.00001  -0.00000   0.00005   0.00000   0.00000
  95        2PZ        -0.00000   0.00000   0.00002  -0.00000   0.00000
  96        3S         -0.00010   0.00019  -0.00034  -0.00010   0.00030
  97        3PX         0.00006  -0.00004   0.00003  -0.00034   0.00011
  98        3PY         0.00003  -0.00008  -0.00011  -0.00006  -0.00007
  99        3PZ        -0.00006   0.00023  -0.00010  -0.00009   0.00026
 100        4XX         0.00001  -0.00001   0.00006  -0.00001  -0.00001
 101        4YY         0.00000   0.00000   0.00007   0.00001  -0.00001
 102        4ZZ        -0.00001   0.00001   0.00003  -0.00001   0.00001
 103        4XY        -0.00000   0.00000  -0.00002  -0.00000   0.00000
 104        4XZ         0.00001  -0.00001  -0.00000   0.00001  -0.00000
 105        4YZ         0.00001  -0.00001   0.00002   0.00001  -0.00001
 106 10  C  1S          0.00000   0.00000   0.00000   0.00001  -0.00000
 107        2S          0.00001   0.00000   0.00002   0.00007  -0.00000
 108        2PX         0.00001   0.00000   0.00001   0.00002   0.00001
 109        2PY        -0.00000   0.00000  -0.00001  -0.00002   0.00000
 110        2PZ        -0.00000   0.00000  -0.00000   0.00001   0.00000
 111        3S         -0.00007  -0.00010  -0.00020  -0.00088  -0.00020
 112        3PX        -0.00001   0.00004   0.00012   0.00080   0.00003
 113        3PY        -0.00002   0.00000  -0.00005   0.00035  -0.00002
 114        3PZ         0.00011   0.00004   0.00014  -0.00030   0.00009
 115        4XX        -0.00001   0.00000  -0.00001  -0.00004   0.00000
 116        4YY         0.00000  -0.00000  -0.00000   0.00002  -0.00001
 117        4ZZ        -0.00000  -0.00000  -0.00001   0.00000  -0.00000
 118        4XY        -0.00000  -0.00000   0.00001  -0.00003   0.00000
 119        4XZ        -0.00000  -0.00000  -0.00000  -0.00000   0.00000
 120        4YZ        -0.00000  -0.00000   0.00000   0.00000  -0.00000
 121 11  H  1S          0.00000   0.00001  -0.00001   0.00011   0.00001
 122        2S          0.00000   0.00007   0.00001  -0.00094   0.00019
 123        3PX         0.00000   0.00000   0.00001  -0.00005   0.00001
 124        3PY         0.00000   0.00000  -0.00001  -0.00005   0.00000
 125        3PZ         0.00000  -0.00000  -0.00000   0.00003  -0.00000
 126 12  N  1S          0.00000  -0.00000  -0.00001  -0.00000   0.00000
 127        2S          0.00001   0.00000  -0.00001  -0.00001   0.00001
 128        2PX         0.00000   0.00000   0.00002   0.00001   0.00000
 129        2PY        -0.00000  -0.00000  -0.00001  -0.00000  -0.00000
 130        2PZ        -0.00000   0.00000  -0.00000  -0.00000  -0.00000
 131        3S         -0.00007  -0.00005   0.00007   0.00002  -0.00016
 132        3PX         0.00003  -0.00003  -0.00011  -0.00022   0.00004
 133        3PY         0.00001   0.00002   0.00007   0.00002   0.00002
 134        3PZ         0.00000  -0.00006  -0.00002  -0.00013  -0.00004
 135        4XX        -0.00000   0.00000  -0.00001   0.00001   0.00001
 136        4YY         0.00000  -0.00000  -0.00002  -0.00001  -0.00000
 137        4ZZ         0.00000  -0.00000  -0.00002  -0.00001   0.00000
 138        4XY        -0.00000   0.00000  -0.00001   0.00000   0.00000
 139        4XZ         0.00000   0.00000  -0.00001  -0.00000   0.00000
 140        4YZ         0.00000   0.00000   0.00000   0.00000  -0.00000
 141 13  H  1S          0.00001  -0.00000   0.00003  -0.00002   0.00001
 142        2S         -0.00002   0.00013   0.00000  -0.00001   0.00010
 143        3PX        -0.00001   0.00000  -0.00001   0.00000   0.00000
 144        3PY        -0.00000   0.00000   0.00002   0.00000   0.00000
 145        3PZ         0.00000   0.00000   0.00001   0.00000  -0.00000
 146 14  C  1S         -0.00000   0.00000  -0.00000  -0.00000  -0.00000
 147        2S         -0.00000   0.00000  -0.00001  -0.00001  -0.00001
 148        2PX        -0.00000  -0.00000   0.00000   0.00001   0.00000
 149        2PY        -0.00000   0.00000  -0.00001   0.00000   0.00000
 150        2PZ         0.00000  -0.00000   0.00000   0.00000  -0.00000
 151        3S          0.00010   0.00006   0.00015  -0.00016   0.00011
 152        3PX        -0.00005  -0.00002  -0.00008  -0.00014  -0.00006
 153        3PY        -0.00002   0.00000   0.00001   0.00005  -0.00001
 154        3PZ         0.00002  -0.00003  -0.00005  -0.00041   0.00001
 155        4XX        -0.00000   0.00000  -0.00001   0.00000   0.00000
 156        4YY        -0.00000   0.00000  -0.00001  -0.00000  -0.00000
 157        4ZZ        -0.00000   0.00000   0.00001   0.00001   0.00000
 158        4XY         0.00000   0.00000   0.00000   0.00000   0.00000
 159        4XZ        -0.00000  -0.00000  -0.00000   0.00000  -0.00000
 160        4YZ        -0.00000  -0.00000   0.00000  -0.00001  -0.00000
 161 15  H  1S         -0.00001  -0.00000  -0.00000   0.00004  -0.00000
 162        2S         -0.00003  -0.00001  -0.00005   0.00009  -0.00001
 163        3PX         0.00000  -0.00000  -0.00000  -0.00003  -0.00000
 164        3PY        -0.00000  -0.00000   0.00000  -0.00002   0.00000
 165        3PZ        -0.00000  -0.00000  -0.00000   0.00000  -0.00000
 166 16  H  1S          0.00000  -0.00000   0.00000   0.00003   0.00000
 167        2S          0.00001   0.00000   0.00002   0.00007   0.00002
 168        3PX         0.00000   0.00000  -0.00000  -0.00000   0.00000
 169        3PY         0.00000   0.00000  -0.00000   0.00000   0.00000
 170        3PZ        -0.00000   0.00000   0.00000   0.00001  -0.00000
 171 17  P  1S          0.99625   0.00014   0.00000   0.00000   0.00000
 172        2S          0.01417   0.00000  -0.00002   0.00001   0.00001
 173        2PX         0.00003  -0.00000  -0.00007   0.00000  -0.00000
 174        2PY        -0.00002  -0.00001  -0.00002  -0.00000  -0.00001
 175        2PZ        -0.00000  -0.00000   0.00002  -0.00001   0.00000
 176        3S         -0.02721   0.00012  -0.00005   0.00009   0.00005
 177        3PX        -0.00005   0.00001   0.00013  -0.00002   0.00001
 178        3PY         0.00018   0.00010  -0.00002  -0.00004   0.00004
 179        3PZ        -0.00001   0.00004  -0.00003   0.00009   0.00000
 180        4S          0.00282  -0.00018  -0.00216   0.00013  -0.00039
 181        4PX        -0.00010   0.00017  -0.00113  -0.00015   0.00028
 182        4PY        -0.00025   0.00005  -0.00018   0.00002   0.00014
 183        4PZ         0.00009   0.00005   0.00104   0.00025   0.00008
 184        5XX         0.00942  -0.00004   0.00031  -0.00001   0.00001
 185        5YY         0.00940  -0.00010   0.00005   0.00002  -0.00003
 186        5ZZ         0.00947  -0.00003  -0.00003   0.00001  -0.00001
 187        5XY        -0.00001  -0.00004   0.00009  -0.00002  -0.00001
 188        5XZ        -0.00001   0.00000  -0.00010  -0.00001  -0.00001
 189        5YZ         0.00002   0.00001  -0.00002   0.00003   0.00001
 190 18  P  1S         -0.00014   0.99625   0.00000   0.00000   0.00001
 191        2S          0.00000   0.01417  -0.00000   0.00003   0.00003
 192        2PX         0.00001   0.00003   0.00000  -0.00001  -0.00003
 193        2PY         0.00001  -0.00002  -0.00000   0.00001   0.00006
 194        2PZ         0.00000   0.00002  -0.00001   0.00001  -0.00003
 195        3S          0.00015  -0.02717   0.00000   0.00016   0.00016
 196        3PX        -0.00006  -0.00015  -0.00002   0.00014   0.00020
 197        3PY        -0.00004  -0.00002   0.00000  -0.00003  -0.00006
 198        3PZ        -0.00003  -0.00007   0.00003  -0.00000   0.00011
 199        4S         -0.00032   0.00282  -0.00002  -0.00037  -0.00311
 200        4PX        -0.00003   0.00018   0.00013  -0.00019  -0.00101
 201        4PY        -0.00017   0.00020  -0.00015  -0.00013   0.00165
 202        4PZ         0.00002  -0.00002  -0.00022  -0.00009  -0.00013
 203        5XX        -0.00006   0.00941  -0.00003   0.00003   0.00011
 204        5YY        -0.00007   0.00945  -0.00001   0.00003   0.00025
 205        5ZZ        -0.00005   0.00946   0.00002  -0.00005   0.00004
 206        5XY        -0.00005  -0.00001  -0.00001  -0.00001  -0.00003
 207        5XZ        -0.00000  -0.00003   0.00004  -0.00001   0.00005
 208        5YZ        -0.00000   0.00001   0.00002  -0.00000  -0.00019
 209 19  O  1S          0.00001   0.00001  -0.00002  -0.00001  -0.00000
 210        2S         -0.00002   0.00002   0.00004   0.00002  -0.00000
 211        2PX        -0.00004  -0.00000  -0.00003   0.00001   0.00001
 212        2PY         0.00004  -0.00002  -0.00002   0.00001  -0.00001
 213        2PZ         0.00015  -0.00001  -0.00002  -0.00004   0.00001
 214        3S          0.00046  -0.00009  -0.00013  -0.00006   0.00002
 215        3PX         0.00010  -0.00001   0.00019  -0.00001  -0.00006
 216        3PY        -0.00007   0.00003   0.00006  -0.00013   0.00002
 217        3PZ        -0.00035   0.00005  -0.00008   0.00023  -0.00004
 218        4XX         0.00004   0.00003   0.00001   0.00001   0.00001
 219        4YY         0.00003   0.00003   0.00006   0.00002  -0.00000
 220        4ZZ        -0.00017   0.00002   0.00007  -0.00001   0.00001
 221        4XY         0.00001  -0.00001  -0.00003   0.00001  -0.00000
 222        4XZ         0.00005   0.00001   0.00000   0.00001   0.00001
 223        4YZ        -0.00010  -0.00001  -0.00000  -0.00004   0.00000
 224 20  O  1S         -0.00002  -0.00000   0.99274  -0.00017   0.00002
 225        2S         -0.00008  -0.00000   0.02590  -0.00005   0.00001
 226        2PX         0.00005   0.00000   0.00002   0.00001  -0.00000
 227        2PY         0.00002   0.00001  -0.00030   0.00001   0.00001
 228        2PZ        -0.00003   0.00000   0.00085   0.00000   0.00000
 229        3S          0.00092  -0.00002   0.01198   0.00021  -0.00006
 230        3PX        -0.00030  -0.00001  -0.00038  -0.00007   0.00001
 231        3PY        -0.00011  -0.00002  -0.00017  -0.00005  -0.00002
 232        3PZ         0.00021  -0.00001  -0.00012  -0.00003  -0.00002
 233        4XX        -0.00024   0.00000  -0.00812  -0.00004   0.00001
 234        4YY        -0.00009  -0.00000  -0.00809  -0.00004   0.00001
 235        4ZZ        -0.00004  -0.00001  -0.00807  -0.00005   0.00001
 236        4XY        -0.00008   0.00000  -0.00002   0.00001   0.00000
 237        4XZ         0.00009   0.00000   0.00006  -0.00000   0.00000
 238        4YZ         0.00000  -0.00000  -0.00000  -0.00001   0.00000
 239 21  O  1S          0.00001   0.00000  -0.00003   0.00001  -0.00001
 240        2S         -0.00006   0.00001  -0.00018   0.00001  -0.00005
 241        2PX        -0.00010  -0.00000  -0.00001  -0.00000  -0.00001
 242        2PY         0.00005  -0.00001  -0.00000  -0.00000  -0.00000
 243        2PZ        -0.00014  -0.00001   0.00004   0.00002  -0.00001
 244        3S          0.00059   0.00000   0.00117   0.00000   0.00026
 245        3PX         0.00024   0.00002   0.00025   0.00004   0.00004
 246        3PY        -0.00009   0.00006  -0.00007   0.00000  -0.00001
 247        3PZ         0.00033   0.00003  -0.00000  -0.00006   0.00005
 248        4XX        -0.00003   0.00001  -0.00019   0.00002  -0.00003
 249        4YY         0.00001  -0.00001  -0.00009   0.00000  -0.00003
 250        4ZZ        -0.00011   0.00002  -0.00012  -0.00000  -0.00002
 251        4XY         0.00006  -0.00001  -0.00003   0.00000  -0.00001
 252        4XZ        -0.00012  -0.00000   0.00000   0.00000  -0.00000
 253        4YZ         0.00008   0.00000   0.00001   0.00000   0.00000
 254 22  O  1S          0.00000   0.00001  -0.00001  -0.00002  -0.00002
 255        2S          0.00002  -0.00003  -0.00003  -0.00007   0.00002
 256        2PX         0.00001  -0.00011   0.00001  -0.00002   0.00001
 257        2PY         0.00001   0.00010   0.00002   0.00000   0.00001
 258        2PZ         0.00001   0.00009   0.00000  -0.00001  -0.00003
 259        3S         -0.00001   0.00049   0.00019   0.00028  -0.00001
 260        3PX        -0.00004   0.00025  -0.00000   0.00012   0.00011
 261        3PY        -0.00005  -0.00025  -0.00008  -0.00002  -0.00022
 262        3PZ        -0.00003  -0.00020  -0.00000   0.00003   0.00009
 263        4XX         0.00000  -0.00009  -0.00002  -0.00002   0.00006
 264        4YY         0.00001  -0.00000  -0.00002  -0.00005   0.00002
 265        4ZZ         0.00002  -0.00000  -0.00001  -0.00005   0.00003
 266        4XY        -0.00002   0.00011  -0.00001  -0.00001  -0.00001
 267        4XZ         0.00000   0.00010   0.00000   0.00001   0.00001
 268        4YZ        -0.00000  -0.00007  -0.00000  -0.00001   0.00004
 269 23  O  1S         -0.00001  -0.00002  -0.00002   0.00001   0.99272
 270        2S         -0.00002  -0.00005  -0.00001  -0.00014   0.02576
 271        2PX        -0.00001   0.00001  -0.00000  -0.00000   0.00029
 272        2PY        -0.00001  -0.00005  -0.00001   0.00003   0.00063
 273        2PZ         0.00000   0.00001  -0.00001  -0.00004   0.00055
 274        3S          0.00008   0.00080   0.00001   0.00076   0.01261
 275        3PX         0.00003  -0.00005  -0.00000   0.00013   0.00005
 276        3PY         0.00005   0.00035   0.00006   0.00002   0.00043
 277        3PZ         0.00001  -0.00008   0.00004   0.00024  -0.00041
 278        4XX        -0.00002  -0.00004  -0.00000  -0.00007  -0.00815
 279        4YY        -0.00001  -0.00022   0.00000  -0.00009  -0.00820
 280        4ZZ        -0.00002  -0.00005  -0.00001  -0.00009  -0.00811
 281        4XY         0.00000   0.00002   0.00000   0.00001   0.00003
 282        4XZ         0.00000   0.00001   0.00001   0.00001   0.00002
 283        4YZ        -0.00000   0.00010   0.00001   0.00004   0.00002
 284 24  O  1S          0.00000   0.00001   0.00001   0.00000  -0.00004
 285        2S         -0.00001  -0.00003   0.00005   0.00001  -0.00026
 286        2PX         0.00001  -0.00000   0.00001  -0.00000  -0.00002
 287        2PY         0.00001  -0.00002  -0.00001   0.00000   0.00004
 288        2PZ         0.00001  -0.00017   0.00000   0.00001   0.00001
 289        3S          0.00004   0.00046  -0.00028  -0.00002   0.00153
 290        3PX        -0.00001  -0.00002  -0.00005   0.00001   0.00018
 291        3PY         0.00000   0.00003   0.00003   0.00002  -0.00022
 292        3PZ        -0.00000   0.00040  -0.00004  -0.00000   0.00032
 293        4XX         0.00001   0.00006   0.00004   0.00000  -0.00014
 294        4YY         0.00000   0.00005   0.00005   0.00001  -0.00021
 295        4ZZ         0.00000  -0.00018   0.00004   0.00001  -0.00016
 296        4XY        -0.00001  -0.00000  -0.00000  -0.00001   0.00002
 297        4XZ        -0.00000  -0.00003  -0.00000  -0.00001   0.00001
 298        4YZ        -0.00000  -0.00006   0.00000   0.00000   0.00001
 299 25  H  1S         -0.00010   0.00000   0.00030   0.00000   0.00001
 300        2S         -0.00020  -0.00002  -0.00098   0.00004  -0.00005
 301        3PX         0.00001   0.00000   0.00012  -0.00001   0.00000
 302        3PY        -0.00000   0.00000  -0.00001   0.00001   0.00000
 303        3PZ         0.00000  -0.00000   0.00011  -0.00001   0.00000
 304 26  H  1S         -0.00002  -0.00007  -0.00003  -0.00005   0.00031
 305        2S          0.00000  -0.00018   0.00005  -0.00074  -0.00102
 306        3PX         0.00000  -0.00001   0.00000  -0.00009   0.00005
 307        3PY         0.00000   0.00002   0.00000  -0.00013   0.00000
 308        3PZ         0.00000  -0.00001  -0.00000   0.00004   0.00015
                           6         7         8         9        10
                           O         O         O         O         O
     Eigenvalues --   -19.05986 -19.05485 -19.04672 -19.04464 -14.22728
   1 1   C  1S          0.00001  -0.00003   0.00001  -0.00000   0.00000
   2        2S          0.00007  -0.00014   0.00004  -0.00003  -0.00001
   3        2PX         0.00001   0.00002   0.00004  -0.00007   0.00001
   4        2PY         0.00001  -0.00006   0.00001  -0.00001   0.00000
   5        2PZ        -0.00002   0.00000  -0.00001  -0.00001   0.00000
   6        3S         -0.00047   0.00090  -0.00082   0.00068   0.00005
   7        3PX        -0.00024   0.00011  -0.00043   0.00104   0.00005
   8        3PY        -0.00026   0.00046  -0.00016   0.00007   0.00002
   9        3PZ        -0.00019   0.00047  -0.00026   0.00010  -0.00005
  10        4XX         0.00002  -0.00004   0.00001   0.00003   0.00002
  11        4YY         0.00001  -0.00009   0.00001   0.00000   0.00000
  12        4ZZ        -0.00001  -0.00004   0.00003  -0.00000  -0.00000
  13        4XY         0.00000  -0.00001   0.00001   0.00002   0.00000
  14        4XZ         0.00000  -0.00002   0.00002   0.00002   0.00001
  15        4YZ        -0.00002   0.00002   0.00000   0.00000   0.00000
  16 2   H  1S          0.00005  -0.00008   0.00006   0.00004   0.00000
  17        2S         -0.00014   0.00036  -0.00008  -0.00012  -0.00006
  18        3PX         0.00000  -0.00000  -0.00001  -0.00003  -0.00000
  19        3PY         0.00001  -0.00002   0.00001  -0.00001  -0.00000
  20        3PZ        -0.00001   0.00003  -0.00003  -0.00000  -0.00000
  21 3   H  1S         -0.00001   0.00001  -0.00003   0.00006  -0.00000
  22        2S         -0.00007   0.00018   0.00036  -0.00022  -0.00000
  23        3PX         0.00001  -0.00000  -0.00003  -0.00002  -0.00000
  24        3PY        -0.00000   0.00003   0.00002  -0.00001  -0.00000
  25        3PZ         0.00001  -0.00002  -0.00001  -0.00000   0.00000
  26 4   C  1S         -0.00004  -0.00001  -0.00003  -0.00003   0.00000
  27        2S         -0.00023  -0.00006  -0.00019  -0.00016   0.00001
  28        2PX        -0.00004   0.00004  -0.00001   0.00002   0.00000
  29        2PY        -0.00004   0.00000   0.00001  -0.00001  -0.00000
  30        2PZ        -0.00001   0.00005   0.00004  -0.00002   0.00000
  31        3S          0.00159   0.00003   0.00107   0.00098  -0.00002
  32        3PX         0.00046  -0.00072  -0.00022  -0.00052  -0.00000
  33        3PY         0.00058   0.00047  -0.00046  -0.00005  -0.00002
  34        3PZ         0.00062  -0.00046  -0.00043  -0.00011  -0.00001
  35        4XX        -0.00006  -0.00001   0.00001   0.00002   0.00000
  36        4YY        -0.00002   0.00005  -0.00002  -0.00002   0.00000
  37        4ZZ        -0.00000  -0.00003  -0.00002  -0.00004   0.00000
  38        4XY        -0.00001   0.00000   0.00002   0.00000  -0.00000
  39        4XZ         0.00001   0.00001   0.00003   0.00000  -0.00000
  40        4YZ        -0.00003  -0.00001   0.00002   0.00001   0.00000
  41 5   O  1S          0.00001  -0.00001   0.00000  -0.00002   0.00000
  42        2S          0.00002  -0.00002   0.00002  -0.00010   0.00000
  43        2PX        -0.00002   0.00001  -0.00003   0.00004   0.00000
  44        2PY        -0.00002   0.00002  -0.00000  -0.00001  -0.00000
  45        2PZ        -0.00005  -0.00001  -0.00001   0.00001  -0.00000
  46        3S         -0.00021   0.00030  -0.00006   0.00034  -0.00001
  47        3PX         0.00005   0.00000   0.00014  -0.00016  -0.00001
  48        3PY         0.00010  -0.00010   0.00005   0.00004   0.00001
  49        3PZ         0.00041  -0.00009   0.00007  -0.00006   0.00000
  50        4XX         0.00002  -0.00001   0.00001  -0.00003   0.00000
  51        4YY         0.00003  -0.00002   0.00003  -0.00009   0.00001
  52        4ZZ        -0.00006   0.00002   0.00001  -0.00007   0.00000
  53        4XY         0.00002   0.00000   0.00001  -0.00001  -0.00000
  54        4XZ         0.00000  -0.00001  -0.00001   0.00000   0.00000
  55        4YZ         0.00003   0.00001  -0.00001  -0.00000   0.00000
  56 6   H  1S         -0.00007   0.00004   0.00004  -0.00006  -0.00000
  57        2S         -0.00039  -0.00021  -0.00013   0.00014  -0.00000
  58        3PX         0.00001  -0.00001  -0.00001   0.00000  -0.00000
  59        3PY        -0.00012  -0.00000   0.00001  -0.00001   0.00000
  60        3PZ         0.00006   0.00001   0.00000  -0.00000   0.00000
  61 7   C  1S         -0.00000   0.00000  -0.00000   0.00000   0.00000
  62        2S         -0.00001   0.00001  -0.00002   0.00004   0.00007
  63        2PX         0.00001  -0.00001   0.00001   0.00000  -0.00005
  64        2PY        -0.00000  -0.00001  -0.00002   0.00000  -0.00001
  65        2PZ         0.00000   0.00000   0.00000  -0.00002   0.00000
  66        3S          0.00021  -0.00021   0.00023  -0.00058  -0.00075
  67        3PX        -0.00028   0.00051  -0.00057   0.00078  -0.00022
  68        3PY         0.00006  -0.00001   0.00002   0.00011  -0.00014
  69        3PZ        -0.00022  -0.00002  -0.00009   0.00040   0.00038
  70        4XX         0.00002  -0.00002   0.00002  -0.00003  -0.00009
  71        4YY        -0.00000   0.00000  -0.00000   0.00000  -0.00001
  72        4ZZ        -0.00001   0.00001   0.00000   0.00000   0.00001
  73        4XY        -0.00000   0.00001  -0.00000  -0.00002  -0.00003
  74        4XZ         0.00000  -0.00000  -0.00000  -0.00001   0.00004
  75        4YZ        -0.00001   0.00001  -0.00000  -0.00000  -0.00000
  76 8   C  1S         -0.00001   0.00000  -0.00000   0.00000  -0.00000
  77        2S         -0.00003   0.00001  -0.00002   0.00002  -0.00000
  78        2PX         0.00001  -0.00001  -0.00000   0.00001  -0.00001
  79        2PY        -0.00001  -0.00000  -0.00000  -0.00000  -0.00001
  80        2PZ        -0.00001  -0.00000  -0.00000   0.00000   0.00002
  81        3S          0.00026  -0.00009   0.00026  -0.00044  -0.00003
  82        3PX        -0.00007  -0.00006   0.00012  -0.00019   0.00016
  83        3PY         0.00005  -0.00001   0.00004  -0.00011   0.00007
  84        3PZ        -0.00011   0.00010  -0.00012   0.00021  -0.00015
  85        4XX        -0.00001   0.00001  -0.00000  -0.00001  -0.00003
  86        4YY        -0.00002   0.00001  -0.00001   0.00000  -0.00001
  87        4ZZ        -0.00000  -0.00001   0.00001  -0.00000  -0.00002
  88        4XY         0.00000  -0.00000   0.00000  -0.00000  -0.00000
  89        4XZ        -0.00000   0.00001  -0.00001   0.00000  -0.00001
  90        4YZ        -0.00001   0.00000  -0.00000   0.00001   0.00000
  91 9   C  1S          0.00000  -0.00000  -0.00000   0.00000   0.00004
  92        2S          0.00001   0.00000  -0.00001   0.00000   0.00035
  93        2PX         0.00000   0.00000   0.00000  -0.00001   0.00022
  94        2PY         0.00001  -0.00001   0.00000   0.00000   0.00004
  95        2PZ         0.00001  -0.00001  -0.00000   0.00000  -0.00001
  96        3S         -0.00015  -0.00009   0.00012  -0.00008   0.00010
  97        3PX         0.00003   0.00004   0.00002  -0.00014  -0.00071
  98        3PY        -0.00003   0.00009  -0.00008  -0.00001  -0.00024
  99        3PZ        -0.00003  -0.00009   0.00015  -0.00014   0.00041
 100        4XX        -0.00001   0.00001  -0.00001   0.00002  -0.00021
 101        4YY         0.00001  -0.00000  -0.00000   0.00001  -0.00002
 102        4ZZ         0.00001  -0.00001   0.00000  -0.00001   0.00006
 103        4XY        -0.00000   0.00000   0.00000   0.00000  -0.00001
 104        4XZ         0.00000  -0.00000   0.00000  -0.00000  -0.00007
 105        4YZ        -0.00000   0.00001  -0.00001   0.00000  -0.00004
 106 10  C  1S          0.00000   0.00000  -0.00000  -0.00000  -0.00000
 107        2S         -0.00000   0.00001   0.00000  -0.00000   0.00006
 108        2PX        -0.00000  -0.00000   0.00001  -0.00001  -0.00000
 109        2PY         0.00001  -0.00000   0.00000   0.00000  -0.00001
 110        2PZ         0.00000  -0.00000   0.00000  -0.00000   0.00005
 111        3S         -0.00001   0.00002  -0.00013   0.00024  -0.00062
 112        3PX        -0.00001   0.00001   0.00004  -0.00007  -0.00020
 113        3PY        -0.00003  -0.00001   0.00000   0.00001  -0.00010
 114        3PZ         0.00001   0.00002   0.00004  -0.00007   0.00023
 115        4XX         0.00000  -0.00000  -0.00000   0.00001   0.00002
 116        4YY         0.00000   0.00000  -0.00000   0.00000  -0.00002
 117        4ZZ         0.00000  -0.00000  -0.00000   0.00000  -0.00011
 118        4XY         0.00000  -0.00000  -0.00000   0.00000   0.00000
 119        4XZ         0.00000  -0.00000  -0.00000   0.00000   0.00001
 120        4YZ         0.00000   0.00000  -0.00000   0.00000   0.00003
 121 11  H  1S         -0.00002   0.00001   0.00001  -0.00001   0.00002
 122        2S          0.00001  -0.00006   0.00003  -0.00008   0.00009
 123        3PX         0.00001  -0.00000  -0.00000   0.00000   0.00000
 124        3PY        -0.00000  -0.00000  -0.00000   0.00000   0.00000
 125        3PZ         0.00000  -0.00000   0.00000  -0.00000  -0.00000
 126 12  N  1S         -0.00000   0.00000  -0.00000  -0.00000   0.99262
 127        2S         -0.00002   0.00002  -0.00000  -0.00000   0.03512
 128        2PX         0.00000  -0.00000   0.00000  -0.00000  -0.00079
 129        2PY         0.00000  -0.00000  -0.00000  -0.00000  -0.00043
 130        2PZ        -0.00000   0.00000  -0.00000   0.00000   0.00103
 131        3S          0.00011  -0.00008  -0.00005   0.00013   0.00411
 132        3PX        -0.00004   0.00005  -0.00002  -0.00003   0.00031
 133        3PY        -0.00001  -0.00001   0.00002  -0.00000   0.00019
 134        3PZ         0.00003   0.00000  -0.00004   0.00002  -0.00047
 135        4XX        -0.00000   0.00000   0.00000  -0.00001  -0.00825
 136        4YY        -0.00001   0.00001  -0.00001   0.00000  -0.00825
 137        4ZZ        -0.00001   0.00001  -0.00000  -0.00000  -0.00830
 138        4XY         0.00000   0.00000  -0.00000  -0.00000  -0.00003
 139        4XZ        -0.00000  -0.00000   0.00000  -0.00000   0.00008
 140        4YZ        -0.00000   0.00000  -0.00000   0.00000   0.00004
 141 13  H  1S          0.00000  -0.00000   0.00000  -0.00001  -0.00002
 142        2S          0.00001  -0.00004   0.00008  -0.00006  -0.00002
 143        3PX        -0.00000   0.00000   0.00000   0.00000  -0.00006
 144        3PY         0.00000  -0.00000   0.00000   0.00000   0.00000
 145        3PZ        -0.00000   0.00000   0.00000   0.00000  -0.00005
 146 14  C  1S         -0.00000   0.00000  -0.00000   0.00000   0.00004
 147        2S         -0.00000   0.00000  -0.00000   0.00001   0.00036
 148        2PX         0.00000  -0.00000   0.00000  -0.00000  -0.00006
 149        2PY         0.00000  -0.00000   0.00000   0.00000   0.00005
 150        2PZ         0.00000  -0.00000  -0.00000  -0.00000  -0.00022
 151        3S         -0.00001   0.00001   0.00006  -0.00009   0.00002
 152        3PX        -0.00000  -0.00001  -0.00004   0.00008  -0.00019
 153        3PY        -0.00001   0.00001  -0.00001   0.00001  -0.00022
 154        3PZ         0.00002   0.00000  -0.00002   0.00000   0.00066
 155        4XX         0.00000  -0.00000   0.00000  -0.00000   0.00002
 156        4YY        -0.00000   0.00000  -0.00000   0.00000  -0.00003
 157        4ZZ        -0.00000  -0.00000   0.00000  -0.00000  -0.00015
 158        4XY         0.00000  -0.00000   0.00000  -0.00000   0.00005
 159        4XZ        -0.00000  -0.00000  -0.00000   0.00000  -0.00014
 160        4YZ         0.00000  -0.00000  -0.00000   0.00000   0.00002
 161 15  H  1S         -0.00000  -0.00000  -0.00000  -0.00000   0.00003
 162        2S          0.00001  -0.00002  -0.00000   0.00001  -0.00001
 163        3PX        -0.00000   0.00000  -0.00000   0.00000  -0.00001
 164        3PY         0.00000  -0.00000  -0.00000   0.00000   0.00000
 165        3PZ         0.00000   0.00000  -0.00000   0.00000  -0.00002
 166 16  H  1S         -0.00000   0.00000   0.00000  -0.00000  -0.00001
 167        2S          0.00001  -0.00000   0.00001  -0.00003  -0.00003
 168        3PX        -0.00000   0.00000  -0.00000   0.00000   0.00006
 169        3PY         0.00000  -0.00000   0.00000   0.00000  -0.00000
 170        3PZ        -0.00000   0.00000   0.00000   0.00000   0.00005
 171 17  P  1S          0.00001   0.00001  -0.00000  -0.00000  -0.00000
 172        2S         -0.00005  -0.00009  -0.00003  -0.00001  -0.00000
 173        2PX         0.00001  -0.00000  -0.00001   0.00001   0.00000
 174        2PY        -0.00000   0.00000  -0.00000   0.00000   0.00000
 175        2PZ        -0.00002   0.00001  -0.00001  -0.00000   0.00000
 176        3S          0.00077   0.00061  -0.00008  -0.00007  -0.00001
[...]
 210         V                 1.895229          3.127039
 211         V                 1.901560          2.997638
 212         V                 1.904613          3.092892
 213         V                 1.915099          3.029194
 214         V                 1.923977          3.005466
 215         V                 1.947611          3.056322
 216         V                 1.951873          3.127920
 217         V                 1.965691          3.231662
 218         V                 1.975550          3.240994
 219         V                 1.979667          3.227611
 220         V                 1.997835          3.241451
 221         V                 2.039768          3.246197
 222         V                 2.047046          3.307213
 223         V                 2.050931          3.171382
 224         V                 2.066610          3.475649
 225         V                 2.084163          3.506544
 226         V                 2.094572          3.403550
 227         V                 2.115261          3.373099
 228         V                 2.141957          3.417374
 229         V                 2.143698          3.443431
 230         V                 2.162422          3.375196
 231         V                 2.172206          3.381214
 232         V                 2.182281          3.388637
 233         V                 2.199367          3.267533
 234         V                 2.237733          3.445808
 235         V                 2.245789          3.485825
 236         V                 2.270548          3.569158
 237         V                 2.285264          3.533397
 238         V                 2.305997          3.554438
 239         V                 2.324618          3.543028
 240         V                 2.348616          3.473225
 241         V                 2.373922          3.543542
 242         V                 2.384949          3.703972
 243         V                 2.397747          3.507406
 244         V                 2.407433          3.723661
 245         V                 2.427526          3.639624
 246         V                 2.435153          3.728105
 247         V                 2.443955          3.674002
 248         V                 2.456108          3.416145
 249         V                 2.482455          3.859677
 250         V                 2.491865          3.750149
 251         V                 2.530829          3.934440
 252         V                 2.539561          4.302046
 253         V                 2.559536          4.408066
 254         V                 2.569119          3.696822
 255         V                 2.574968          4.153006
 256         V                 2.593732          3.846956
 257         V                 2.611416          3.706651
 258         V                 2.636291          3.697013
 259         V                 2.673476          3.781222
 260         V                 2.679818          3.773368
 261         V                 2.686588          3.671542
 262         V                 2.709859          3.937790
 263         V                 2.717758          3.869980
 264         V                 2.737363          3.908065
 265         V                 2.761189          3.852863
 266         V                 2.766858          3.894325
 267         V                 2.770201          3.969061
 268         V                 2.797042          4.100729
 269         V                 2.812012          4.260612
 270         V                 2.831848          4.518743
 271         V                 2.833184          4.324861
 272         V                 2.867654          4.544279
 273         V                 2.881995          4.748765
 274         V                 2.891308          4.755162
 275         V                 2.910436          4.098196
 276         V                 2.933701          4.373177
 277         V                 2.980524          4.297424
 278         V                 3.034151          4.655357
 279         V                 3.070191          4.531473
 280         V                 3.142714          4.638024
 281         V                 3.254059          5.080504
 282         V                 3.296779          4.927833
 283         V                 3.328425          5.023562
 284         V                 3.375638          5.086176
 285         V                 3.439209          6.370886
 286         V                 3.457299          6.187113
 287         V                 3.473138          5.308045
 288         V                 3.507787          5.287615
 289         V                 3.523376          6.349916
 290         V                 3.538381          6.232207
 291         V                 3.568786          9.100100
 292         V                 3.622731         10.136171
 293         V                 3.838430          9.946860
 294         V                 3.869980          6.215899
 295         V                 3.896664          9.709861
 296         V                 3.998426         10.324449
 297         V                 4.009045         10.296454
 298         V                 4.096720         10.540059
 299         V                 4.162743         10.648717
 300         V                 4.196449         10.095051
 301         V                 4.245095         10.534512
 302         V                 4.280677         10.366485
 303         V                 4.302097         10.225836
 304         V                 4.407844         10.123227
 305         V                 4.442978         10.272431
 306         V                 4.547438         10.180469
 307         V                 4.698884         10.558106
 308         V                 4.836631         10.126418
 Total kinetic energy from orbitals= 1.526769277760D+03
                          Isotropic Fermi Contact Couplings
        Atom                 a.u.       MegaHertz       Gauss      10(-4) cm-1
     1  C(13)             -0.00229      -2.57950      -0.92043      -0.86043
     2  H(1)              -0.00015      -0.68822      -0.24557      -0.22956
     3  H(1)               0.00132       5.88918       2.10141       1.96442
     4  C(13)              0.00766       8.61260       3.07319       2.87285
     5  O(17)              0.00183      -1.11146      -0.39660      -0.37074
     6  H(1)              -0.00003      -0.12189      -0.04349      -0.04066
     7  C(13)             -0.00778      -8.75100      -3.12258      -2.91902
     8  C(13)              0.04843      54.44932      19.42887      18.16234
     9  C(13)              0.00365       4.09911       1.46266       1.36731
    10  C(13)             -0.01046     -11.75832      -4.19566      -3.92215
    11  H(1)              -0.00785     -35.09937     -12.52433     -11.70789
    12  N(14)              0.06056      19.56706       6.98201       6.52687
    13  H(1)              -0.00245     -10.93117      -3.90051      -3.64625
    14  C(13)              0.00480       5.39771       1.92604       1.80048
    15  H(1)              -0.00050      -2.25121      -0.80329      -0.75092
    16  H(1)              -0.00251     -11.23936      -4.01048      -3.74905
    17  P(31)             -0.00034      -0.60846      -0.21711      -0.20296
    18  P(31)              0.00088       1.58552       0.56575       0.52887
    19  O(17)             -0.00014       0.08441       0.03012       0.02816
    20  O(17)              0.00143      -0.86810      -0.30976      -0.28957
    21  O(17)              0.00074      -0.44705      -0.15952      -0.14912
    22  O(17)              0.00023      -0.14116      -0.05037      -0.04708
    23  O(17)              0.00044      -0.26607      -0.09494      -0.08875
    24  O(17)              0.00030      -0.18255      -0.06514      -0.06089
    25  H(1)               0.00004       0.16737       0.05972       0.05583
    26  H(1)               0.00000       0.00269       0.00096       0.00090
 --------------------------------------------------------
       Center         ----  Spin Dipole Couplings  ----
                      3XX-RR        3YY-RR        3ZZ-RR
 --------------------------------------------------------
     1   Atom        0.005936     -0.003822     -0.002114
     2   Atom        0.004492     -0.002972     -0.001519
     3   Atom        0.004191     -0.002561     -0.001629
     4   Atom        0.005259     -0.002368     -0.002891
     5   Atom        0.012421     -0.005912     -0.006509
     6   Atom        0.002293     -0.001295     -0.000999
     7   Atom       -0.023275      0.033697     -0.010422
     8   Atom       -0.222529      0.404359     -0.181830
     9   Atom       -0.042186      0.094859     -0.052673
    10   Atom        0.000772      0.010241     -0.011013
    11   Atom       -0.012469      0.007847      0.004621
    12   Atom       -0.374949      0.692028     -0.317080
    13   Atom       -0.006312     -0.004079      0.010391
    14   Atom       -0.061724      0.100164     -0.038440
    15   Atom       -0.001210     -0.004396      0.005607
    16   Atom        0.013810     -0.004427     -0.009383
    17   Atom        0.001669     -0.000378     -0.001291
    18   Atom        0.001375     -0.000465     -0.000910
    19   Atom        0.000203     -0.000542      0.000338
    20   Atom       -0.004431      0.001224      0.003207
    21   Atom        0.000969     -0.000266     -0.000702
    22   Atom        0.001568     -0.000952     -0.000617
    23   Atom        0.001806     -0.001067     -0.000739
    24   Atom        0.001085     -0.000727     -0.000358
    25   Atom       -0.001633      0.003797     -0.002163
    26   Atom        0.001706     -0.000815     -0.000891
 --------------------------------------------------------
                        XY            XZ            YZ
 --------------------------------------------------------
     1   Atom        0.000313      0.001490     -0.000109
     2   Atom        0.000407      0.003860      0.000389
     3   Atom        0.003757      0.001893      0.000614
     4   Atom       -0.002954     -0.001673      0.001293
     5   Atom        0.004960     -0.005583     -0.000512
     6   Atom       -0.001373     -0.001972      0.000730
     7   Atom       -0.009425     -0.000997      0.012108
     8   Atom       -0.126827     -0.046309      0.198736
     9   Atom       -0.024970     -0.008929      0.048428
    10   Atom       -0.003195     -0.003980      0.005963
    11   Atom        0.009042     -0.032278     -0.007974
    12   Atom       -0.190804     -0.055512      0.316843
    13   Atom       -0.002663      0.007759     -0.003195
    14   Atom       -0.029137     -0.002647      0.042119
    15   Atom       -0.000543      0.003781     -0.002436
    16   Atom        0.002379      0.003100      0.001931
    17   Atom       -0.002063     -0.000106      0.000034
    18   Atom        0.000520      0.000317      0.000133
    19   Atom       -0.001418     -0.000077     -0.000509
    20   Atom       -0.004621     -0.004211      0.009338
    21   Atom       -0.001151      0.000386     -0.000464
    22   Atom       -0.000183     -0.001019     -0.000036
    23   Atom        0.000594     -0.000627      0.000047
    24   Atom        0.000304      0.000750      0.000154
    25   Atom       -0.003995     -0.000816      0.000591
    26   Atom        0.000882     -0.000672     -0.000188
 --------------------------------------------------------


 ---------------------------------------------------------------------------------
              Anisotropic Spin Dipole Couplings in Principal Axis System
 ---------------------------------------------------------------------------------

       Atom             a.u.   MegaHertz   Gauss  10(-4) cm-1        Axes

              Baa    -0.0038    -0.516    -0.184    -0.172 -0.0475  0.9935  0.1033
     1 C(13)  Bbb    -0.0024    -0.317    -0.113    -0.106 -0.1716 -0.1100  0.9790
              Bcc     0.0062     0.833     0.297     0.278  0.9840  0.0288  0.1757
 
              Baa    -0.0035    -1.850    -0.660    -0.617 -0.3955 -0.3436  0.8518
     2 H(1)   Bbb    -0.0029    -1.569    -0.560    -0.523 -0.1996  0.9374  0.2855
              Bcc     0.0064     3.419     1.220     1.141  0.8965  0.0571  0.4393
 
              Baa    -0.0043    -2.271    -0.810    -0.757 -0.4220  0.9018  0.0932
     3 H(1)   Bbb    -0.0021    -1.121    -0.400    -0.374 -0.1806 -0.1843  0.9661
              Bcc     0.0064     3.391     1.210     1.131  0.8884  0.3909  0.2406
 
              Baa    -0.0040    -0.539    -0.192    -0.180  0.1104  0.7291 -0.6754
     4 C(13)  Bbb    -0.0027    -0.359    -0.128    -0.120  0.3726  0.5997  0.7082
              Bcc     0.0067     0.898     0.320     0.299  0.9214 -0.3298 -0.2054
 
              Baa    -0.0085     0.613     0.219     0.205  0.3308 -0.4770  0.8143
     5 O(17)  Bbb    -0.0066     0.479     0.171     0.160 -0.0673  0.8488  0.5245
              Bcc     0.0151    -1.093    -0.390    -0.364  0.9413  0.2283 -0.2486
 
              Baa    -0.0020    -1.043    -0.372    -0.348  0.2868 -0.3776  0.8804
     6 H(1)   Bbb    -0.0017    -0.931    -0.332    -0.311  0.4158  0.8770  0.2407
              Bcc     0.0037     1.974     0.704     0.658  0.8631 -0.2970 -0.4085
 
              Baa    -0.0249    -3.337    -1.191    -1.113  0.9816  0.1741 -0.0782
     7 C(13)  Bbb    -0.0134    -1.793    -0.640    -0.598  0.1171 -0.2254  0.9672
              Bcc     0.0382     5.130     1.831     1.711 -0.1508  0.9586  0.2416
 
              Baa    -0.2528   -33.926   -12.106   -11.316  0.8072 -0.0226  0.5898
     8 C(13)  Bbb    -0.2381   -31.944   -11.399   -10.655 -0.5602 -0.3437  0.7536
              Bcc     0.4909    65.870    23.504    21.972 -0.1857  0.9388  0.2901
 
              Baa    -0.0672    -9.023    -3.220    -3.010  0.0664 -0.2762  0.9588
     9 C(13)  Bbb    -0.0466    -6.252    -2.231    -2.085  0.9837  0.1793 -0.0165
              Bcc     0.1138    15.275     5.450     5.095 -0.1674  0.9442  0.2836
 
              Baa    -0.0133    -1.780    -0.635    -0.594  0.2218 -0.2113  0.9519
    10 C(13)  Bbb     0.0001     0.010     0.003     0.003  0.9206  0.3672 -0.1330
              Bcc     0.0132     1.770     0.632     0.590 -0.3215  0.9058  0.2760
 
              Baa    -0.0374   -19.974    -7.127    -6.663  0.7970 -0.0532  0.6016
    11 H(1)   Bbb     0.0027     1.462     0.522     0.488 -0.2050  0.9131  0.3524
              Bcc     0.0347    18.512     6.606     6.175 -0.5681 -0.4042  0.7169
 
              Baa    -0.4088   -15.765    -5.625    -5.259  0.6238 -0.1144  0.7732
    12 N(14)  Bbb    -0.4077   -15.722    -5.610    -5.244  0.7641  0.2975 -0.5724
              Bcc     0.8164    31.487    11.235    10.503 -0.1645  0.9478  0.2730
 
              Baa    -0.0097    -5.179    -1.848    -1.727  0.9149  0.2555 -0.3126
    13 H(1)   Bbb    -0.0046    -2.446    -0.873    -0.816 -0.1654  0.9435  0.2870
              Bcc     0.0143     7.625     2.721     2.543  0.3683 -0.2109  0.9055
 
              Baa    -0.0679    -9.114    -3.252    -3.040  0.9467  0.2225 -0.2328
    14 C(13)  Bbb    -0.0487    -6.533    -2.331    -2.179  0.2798 -0.2103  0.9367
              Bcc     0.1166    15.647     5.583     5.219 -0.1594  0.9520  0.2613
 
              Baa    -0.0050    -2.667    -0.952    -0.890 -0.1273  0.9558  0.2649
    15 H(1)   Bbb    -0.0028    -1.485    -0.530    -0.495  0.9119  0.2178 -0.3478
              Bcc     0.0078     4.152     1.481     1.385  0.3902 -0.1973  0.8994
 
              Baa    -0.0103    -5.471    -1.952    -1.825 -0.0957 -0.2777  0.9559
    16 H(1)   Bbb    -0.0043    -2.306    -0.823    -0.769 -0.1691  0.9509  0.2593
              Bcc     0.0146     7.778     2.775     2.594  0.9809  0.1368  0.1379
 
              Baa    -0.0017    -0.359    -0.128    -0.120  0.5270  0.8466  0.0746
    17 P(31)  Bbb    -0.0013    -0.279    -0.100    -0.093 -0.0177 -0.0768  0.9969
              Bcc     0.0030     0.638     0.228     0.213  0.8497 -0.5267 -0.0255
 
              Baa    -0.0010    -0.208    -0.074    -0.069 -0.0976 -0.1601  0.9823
    18 P(31)  Bbb    -0.0006    -0.129    -0.046    -0.043 -0.2722  0.9536  0.1284
              Bcc     0.0016     0.337     0.120     0.112  0.9573  0.2549  0.1366
 
              Baa    -0.0017     0.125     0.045     0.042  0.5824  0.7841  0.2142
    19 O(17)  Bbb     0.0004    -0.027    -0.010    -0.009 -0.3310 -0.0119  0.9436
              Bcc     0.0014    -0.099    -0.035    -0.033  0.7424 -0.6205  0.2526
 
              Baa    -0.0075     0.545     0.194     0.182  0.4920  0.7432 -0.4534
    20 O(17)  Bbb    -0.0062     0.449     0.160     0.150  0.8080 -0.1958  0.5557
              Bcc     0.0137    -0.994    -0.355    -0.332 -0.3242  0.6397  0.6969
 
              Baa    -0.0011     0.080     0.028     0.027  0.3115  0.7536  0.5788
    21 O(17)  Bbb    -0.0007     0.050     0.018     0.017 -0.4667 -0.4092  0.7841
              Bcc     0.0018    -0.129    -0.046    -0.043  0.8277 -0.5144  0.2242
 
              Baa    -0.0011     0.079     0.028     0.026  0.3215  0.6002  0.7324
    22 O(17)  Bbb    -0.0009     0.064     0.023     0.021 -0.1794  0.7980 -0.5753
              Bcc     0.0020    -0.143    -0.051    -0.048  0.9298 -0.0536 -0.3642
 
              Baa    -0.0013     0.091     0.032     0.030 -0.2511  0.8878 -0.3856
    23 O(17)  Bbb    -0.0008     0.058     0.021     0.019  0.1194  0.4237  0.8979
              Bcc     0.0021    -0.149    -0.053    -0.050  0.9606  0.1794 -0.2124
 
              Baa    -0.0008     0.057     0.020     0.019 -0.0593  0.9677 -0.2452
    24 O(17)  Bbb    -0.0007     0.049     0.017     0.016 -0.4137  0.1997  0.8882
              Bcc     0.0015    -0.105    -0.038    -0.035  0.9085  0.1541  0.3885
 
              Baa    -0.0039    -2.065    -0.737    -0.689  0.8636  0.4296  0.2640
    25 H(1)   Bbb    -0.0021    -1.143    -0.408    -0.381 -0.1839 -0.2191  0.9582
              Bcc     0.0060     3.208     1.145     1.070 -0.4695  0.8760  0.1102
 
              Baa    -0.0011    -0.588    -0.210    -0.196 -0.3593  0.8496 -0.3861
    26 H(1)   Bbb    -0.0010    -0.556    -0.198    -0.185  0.0778  0.4395  0.8949
              Bcc     0.0021     1.144     0.408     0.382  0.9300  0.2915 -0.2240
 

 ---------------------------------------------------------------------------------


 Test job not archived.
 1\1\GINC-BATAGIN1\SP\UB3LYP\6-31G(d,p)\C7H9N1O7P2(3-,2)\ORISON\08-Feb-
 2021\0\\#t B3LYP/6-31G(d,p) scrf=(solvent=water) # Gfinput IOP(6/7=3) 
 Pop=hirshfeld Density Test # Units(Ang,Deg)\\ris-2dp-opt-g09.log\\-3,2
 \C,0,0.36357,-0.92033,-0.64314\H,0,0.18188,-0.70091,-1.69854\H,0,0.161
 93,-1.99148,-0.51695\C,0,-0.71427,-0.18219,0.18284\O,0,-0.52255,-0.496
 58,1.58853\H,0,-0.79082,0.3383,2.0337\C,0,1.823,-0.68354,-0.31968\C,0,
 2.38329,-0.95693,0.93585\C,0,2.70696,-0.24245,-1.31596\C,0,3.75097,-0.
 76539,1.13351\H,0,1.74694,-1.3028,1.74186\N,0,4.02364,-0.06201,-1.1501
 7\H,0,2.31724,-0.02155,-2.30926\C,0,4.52883,-0.32094,0.06592\H,0,4.208
 87,-0.96572,2.09722\H,0,5.5999,-0.16959,0.18799\P,0,-0.72368,1.69568,0
 .07096\P,0,-2.40219,-0.90065,-0.26298\O,0,-1.02378,2.12523,1.50421\O,0
 ,0.84517,2.12496,-0.28517\O,0,-1.52841,2.19631,-1.10112\O,0,-3.49157,-
 0.13186,0.45571\O,0,-2.1904,-2.37593,0.50202\O,0,-2.51862,-1.19182,-1.
 74392\H,0,1.43186,1.91223,0.45474\H,0,-1.74798,-2.16161,1.34264\\Versi
 on=EM64L-G16RevA.03\State=2-A\HF=-1536.6570552\S2=0.758295\S2-1=0.\S2A
 =0.750033\RMSD=3.676e-09\Dipole=2.229614,-1.2841564,2.4372969\Quadrupo
 le=-44.8579285,16.1553744,28.7025541,3.642877,2.375098,-2.094554\PG=C0
 1 [X(C7H9N1O7P2)]\\@


 BLESSED ARE THOSE WHO NOUGHT EXPECT,
 FOR THEY SHALL NOT BE DISAPPOINTED..  WALCOT - ODE TO PITT
 Job cpu time:       0 days  0 hours 27 minutes 42.6 seconds.
 Elapsed time:       0 days  0 hours  3 minutes 28.5 seconds.
 File lengths (MBytes):  RWF=    174 Int=      0 D2E=      0 Chk=      9 Scr=      1
 Normal termination of Gaussian 16 at Mon Feb  8 14:45:44 2021.
