26
ris-2dp_neutral_scf_g09.log	Energy: -964255.7360306
C          0.36357       -0.92033       -0.64314
H          0.18188       -0.70091       -1.69854
H          0.16193       -1.99148       -0.51695
C         -0.71427       -0.18219        0.18284
O         -0.52255       -0.49658        1.58853
H         -0.79082        0.33830        2.03370
C          1.82300       -0.68354       -0.31968
C          2.38329       -0.95693        0.93585
C          2.70696       -0.24245       -1.31596
C          3.75097       -0.76539        1.13351
H          1.74694       -1.30280        1.74186
N          4.02364       -0.06201       -1.15017
H          2.31724       -0.02155       -2.30926
C          4.52883       -0.32094        0.06592
H          4.20887       -0.96572        2.09722
H          5.59990       -0.16959        0.18799
P         -0.72368        1.69568        0.07096
P         -2.40219       -0.90065       -0.26298
O         -1.02378        2.12523        1.50421
O          0.84517        2.12496       -0.28517
O         -1.52841        2.19631       -1.10112
O         -3.49157       -0.13186        0.45571
O         -2.19040       -2.37593        0.50202
O         -2.51862       -1.19182       -1.74392
H          1.43186        1.91223        0.45474
H         -1.74798       -2.16161        1.34264
