 Entering Gaussian System, Link 0=g16
 Input=ris-2dp_cation_scf_g09.com
 Output=ris-2dp_cation_scf_g09.log
 Initial command:
 /opt/g16//g16/l1.exe "/home/orison/scrgauss/Gau-14304.inp" -scrdir="/home/orison/scrgauss/"
 Entering Link 1 = /opt/g16//g16/l1.exe PID=     14306.
  
 Copyright (c) 1988,1990,1992,1993,1995,1998,2003,2009,2016,
            Gaussian, Inc.  All Rights Reserved.
  
 This is part of the Gaussian(R) 16 program.  It is based on
 the Gaussian(R) 09 system (copyright 2009, Gaussian, Inc.),
 the Gaussian(R) 03 system (copyright 2003, Gaussian, Inc.),
 the Gaussian(R) 98 system (copyright 1998, Gaussian, Inc.),
 the Gaussian(R) 94 system (copyright 1995, Gaussian, Inc.),
 the Gaussian 92(TM) system (copyright 1992, Gaussian, Inc.),
 the Gaussian 90(TM) system (copyright 1990, Gaussian, Inc.),
 the Gaussian 88(TM) system (copyright 1988, Gaussian, Inc.),
 the Gaussian 86(TM) system (copyright 1986, Carnegie Mellon
 University), and the Gaussian 82(TM) system (copyright 1983,
 Carnegie Mellon University). Gaussian is a federally registered
 trademark of Gaussian, Inc.
  
 This software contains proprietary and confidential information,
 including trade secrets, belonging to Gaussian, Inc.
  
 This software is provided under written license and may be
 used, copied, transmitted, or stored only in accord with that
 written license.
  
 The following legend is applicable only to US Government
 contracts under FAR:
  
                    RESTRICTED RIGHTS LEGEND
  
 Use, reproduction and disclosure by the US Government is
 subject to restrictions as set forth in subparagraphs (a)
 and (c) of the Commercial Computer Software - Restricted
 Rights clause in FAR 52.227-19.
  
 Gaussian, Inc.
 340 Quinnipiac St., Bldg. 40, Wallingford CT 06492
  
  
 ---------------------------------------------------------------
 Warning -- This program may not be used in any manner that
 competes with the business of Gaussian, Inc. or will provide
 assistance to any competitor of Gaussian, Inc.  The licensee
 of this program is prohibited from giving any competitor of
 Gaussian, Inc. access to this program.  By using this program,
 the user acknowledges that Gaussian, Inc. is engaged in the
 business of creating and licensing software in the field of
 computational chemistry and represents and warrants to the
 licensee that it is not a competitor of Gaussian, Inc. and that
 it will not use this program in any manner prohibited above.
 ---------------------------------------------------------------
  

 Cite this work as:
 Gaussian 16, Revision A.03,
 M. J. Frisch, G. W. Trucks, H. B. Schlegel, G. E. Scuseria, 
 M. A. Robb, J. R. Cheeseman, G. Scalmani, V. Barone, 
 G. A. Petersson, H. Nakatsuji, X. Li, M. Caricato, A. V. Marenich, 
 J. Bloino, B. G. Janesko, R. Gomperts, B. Mennucci, H. P. Hratchian, 
 J. V. Ortiz, A. F. Izmaylov, J. L. Sonnenberg, D. Williams-Young, 
 F. Ding, F. Lipparini, F. Egidi, J. Goings, B. Peng, A. Petrone, 
 T. Henderson, D. Ranasinghe, V. G. Zakrzewski, J. Gao, N. Rega, 
 G. Zheng, W. Liang, M. Hada, M. Ehara, K. Toyota, R. Fukuda, 
 J. Hasegawa, M. Ishida, T. Nakajima, Y. Honda, O. Kitao, H. Nakai, 
 T. Vreven, K. Throssell, J. A. Montgomery, Jr., J. E. Peralta, 
 F. Ogliaro, M. J. Bearpark, J. J. Heyd, E. N. Brothers, K. N. Kudin, 
 V. N. Staroverov, T. A. Keith, R. Kobayashi, J. Normand, 
 K. Raghavachari, A. P. Rendell, J. C. Burant, S. S. Iyengar, 
 J. Tomasi, M. Cossi, J. M. Millam, M. Klene, C. Adamo, R. Cammi, 
 J. W. Ochterski, R. L. Martin, K. Morokuma, O. Farkas, 
 J. B. Foresman, and D. J. Fox, Gaussian, Inc., Wallingford CT, 2016.
 
 ******************************************
 Gaussian 16:  EM64L-G16RevA.03 25-Dec-2016
                 8-Feb-2021 
 ******************************************
 %nproc=8
 Will use up to    8 processors via shared memory.
 %Mem=4GB
 ----------------------------------------------------------------------
 #t B3LYP/6-31G(d,p) scrf=(solvent=water) # Gfinput IOP(6/7=3) Pop=hirs
 hfeld Density Test # Units(Ang,Deg)
 ----------------------------------------------------------------------
 -------------------
 ris-2dp-opt-g09.log
 -------------------
 Symbolic Z-matrix:
 Charge = -1 Multiplicity = 2
 C                     0.36357  -0.92033  -0.64314 
 H                     0.18188  -0.70091  -1.69854 
 H                     0.16193  -1.99148  -0.51695 
 C                    -0.71427  -0.18219   0.18284 
 O                    -0.52255  -0.49658   1.58853 
 H                    -0.79082   0.3383    2.0337 
 C                     1.823    -0.68354  -0.31968 
 C                     2.38329  -0.95693   0.93585 
 C                     2.70696  -0.24245  -1.31596 
 C                     3.75097  -0.76539   1.13351 
 H                     1.74694  -1.3028    1.74186 
 N                     4.02364  -0.06201  -1.15017 
 H                     2.31724  -0.02155  -2.30926 
 C                     4.52883  -0.32094   0.06592 
 H                     4.20887  -0.96572   2.09722 
 H                     5.5999   -0.16959   0.18799 
 P                    -0.72368   1.69568   0.07096 
 P                    -2.40219  -0.90065  -0.26298 
 O                    -1.02378   2.12523   1.50421 
 O                     0.84517   2.12496  -0.28517 
 O                    -1.52841   2.19631  -1.10112 
 O                    -3.49157  -0.13186   0.45571 
 O                    -2.1904   -2.37593   0.50202 
 O                    -2.51862  -1.19182  -1.74392 
 H                     1.43186   1.91223   0.45474 
 H                    -1.74798  -2.16161   1.34264 
 
                    Distance matrix (angstroms):
                    1          2          3          4          5
     1  C    0.000000
     2  H    1.093172   0.000000
     3  H    1.097244   1.749893   0.000000
     4  C    1.545585   2.147498   2.128606   0.000000
     5  O    2.438262   3.367908   2.671383   1.453121   0.000000
     6  H    3.175254   3.994461   3.583493   1.924176   0.983448
     7  C    1.513483   2.143556   2.123388   2.634695   3.029492
     8  C    2.563946   3.442639   2.848747   3.280568   3.013606
     9  C    2.530550   2.594722   3.189781   3.735619   4.350906
    10  C    3.828181   4.556651   4.136245   4.602419   4.306074
    11  H    2.783563   3.827275   2.844074   3.121516   2.413314
    12  N    3.793403   3.932941   4.363098   4.923327   5.325145
    13  H    2.720402   2.322557   3.426129   3.927648   4.845908
    14  C    4.267485   4.706769   4.711715   5.246239   5.278791
    15  H    4.722072   5.540268   4.925829   5.340045   4.781756
    16  H    5.354768   5.761618   5.778213   6.314185   6.289104
    17  P    2.921568   3.113649   3.837329   1.881223   2.673850
    18  P    2.791834   2.962794   2.798057   1.887860   2.669159
    19  O    3.976341   4.438276   4.736908   2.676939   2.670623
    20  O    3.103848   3.228484   4.179189   2.823797   3.500554
    21  O    3.674613   3.417000   4.553690   2.822878   3.936703
    22  O    4.085494   4.296376   4.213350   2.791126   3.198653
    23  O    3.154826   3.643607   2.592211   2.663331   2.737551
    24  O    3.097167   2.745132   3.054547   2.826205   3.946248
    25  H    3.220245   3.609372   4.218513   3.011046   3.302660
    26  H    3.153211   3.886744   2.671100   2.516306   2.081938
                    6          7          8          9         10
     6  H    0.000000
     7  C    3.662596   0.000000
     8  C    3.599704   1.401793   0.000000
     9  C    4.877700   1.403039   2.384511   0.000000
    10  C    4.759867   2.415684   1.395101   2.713545   0.000000
    11  H    3.036216   2.153884   1.083614   3.375832   2.162183
    12  N    5.785871   2.432864   2.800555   1.339288   2.405054
    13  H    5.352647   2.154282   3.377875   1.089644   3.802834
    14  C    5.710117   2.757115   2.400959   2.288004   1.393682
    15  H    5.167340   3.407845   2.163701   3.798506   1.085607
    16  H    6.671274   3.845367   3.394964   3.261330   2.160446
    17  P    2.387328   3.506974   4.175840   4.177222   5.216164
    18  P    3.066961   4.231144   4.933678   5.257890   6.311090
    19  O    1.878230   4.395443   4.629349   5.241916   5.593866
    20  O    3.353472   2.974057   3.654415   3.183303   4.337102
    21  O    3.717975   4.487330   5.421583   4.892041   6.452681
    22  O    3.163092   5.399096   5.951912   6.447699   7.301723
    23  O    3.416418   4.432466   4.808369   5.642776   6.188093
    24  O    4.426847   4.597442   5.591517   5.328334   6.911527
    25  H    3.148123   2.736921   3.060844   3.066579   3.606750
    26  H    2.764646   4.207125   4.322514   5.531530   5.677290
                   11         12         13         14         15
    11  H    0.000000
    12  N    3.884168   0.000000
    13  H    4.287006   2.063232   0.000000
    14  C    3.392895   1.342064   3.259179   0.000000
    15  H    2.510180   3.375877   4.887411   2.155063   0.000000
    16  H    4.306272   2.070469   4.127230   1.088577   2.492779
    17  P    4.229273   5.207464   4.226289   5.626335   5.959768
    18  P    4.625623   6.540773   5.218534   6.962993   7.020035
    19  O    4.414154   6.107880   5.505782   6.235696   6.106248
    20  O    4.083084   3.953952   3.297186   4.435656   5.151947
    21  O    5.572632   5.993970   4.600818   6.662483   7.290006
    22  O    5.519716   7.685188   6.434244   8.032092   7.917490
    23  O    4.265144   6.833612   5.810785   7.039973   6.744184
    24  O    5.509808   6.665596   5.007463   7.328063   7.750135
    25  H    3.477409   3.631898   3.487563   3.837897   4.323439
    26  H    3.620966   6.628274   5.868751   6.664565   6.122386
                   16         17         18         19         20
    16  H    0.000000
    17  P    6.593982   0.000000
    18  P    8.048060   3.109637   0.000000
    19  O    7.132445   1.526034   3.765491   0.000000
    20  O    5.300594   1.665053   4.438486   2.587442   0.000000
    21  O    7.620505   1.507313   3.325227   2.654703   2.510926
    22  O    9.095489   3.339034   1.514695   3.504825   4.944639
    23  O    8.102797   4.349148   1.675270   4.756661   5.485651
    24  O    8.407592   3.853992   1.513776   4.877265   4.944094
    25  H    4.666657   2.200121   4.809091   2.678978   0.967949
    26  H    7.700175   4.188681   2.143835   4.350582   5.267720
                   21         22         23         24         25
    21  O    0.000000
    22  O    3.420247   0.000000
    23  O    4.890160   2.594424   0.000000
    24  O    3.587915   2.628406   2.560096   0.000000
    25  H    3.356278   5.330897   5.613494   5.484116   0.000000
    26  H    5.001164   2.818978   0.973812   3.325843   5.243655
                   26
    26  H    0.000000
 Framework group  C1[X(C7H9NO7P2)]
 Deg. of freedom    72
                         Standard orientation:                         
 ---------------------------------------------------------------------
 Center     Atomic      Atomic             Coordinates (Angstroms)
 Number     Number       Type             X           Y           Z
 ---------------------------------------------------------------------
      1          6           0        0.363569   -0.920331   -0.643140
      2          1           0        0.181879   -0.700911   -1.698540
      3          1           0        0.161929   -1.991481   -0.516950
      4          6           0       -0.714271   -0.182191    0.182840
      5          8           0       -0.522551   -0.496581    1.588530
      6          1           0       -0.790820    0.338300    2.033700
      7          6           0        1.822999   -0.683541   -0.319680
      8          6           0        2.383289   -0.956932    0.935850
      9          6           0        2.706959   -0.242452   -1.315960
     10          6           0        3.750969   -0.765392    1.133510
     11          1           0        1.746939   -1.302801    1.741860
     12          7           0        4.023639   -0.062012   -1.150170
     13          1           0        2.317240   -0.021552   -2.309260
     14          6           0        4.528829   -0.320942    0.065920
     15          1           0        4.208869   -0.965722    2.097220
     16          1           0        5.599899   -0.169593    0.187990
     17         15           0       -0.723680    1.695679    0.070960
     18         15           0       -2.402191   -0.900650   -0.262980
     19          8           0       -1.023780    2.125230    1.504210
     20          8           0        0.845170    2.124959   -0.285170
     21          8           0       -1.528410    2.196310   -1.101120
     22          8           0       -3.491571   -0.131860    0.455710
     23          8           0       -2.190401   -2.375930    0.502020
     24          8           0       -2.518621   -1.191820   -1.743920
     25          1           0        1.431860    1.912229    0.454740
     26          1           0       -1.747981   -2.161610    1.342640
 ---------------------------------------------------------------------
 Rotational constants (GHZ):           0.6698934           0.2814083           0.2463883
 AO basis set in the form of general basis input (Overlap normalization):
      1 0
 S   6 1.00       0.000000000000
      0.3047524880D+04  0.1834737132D-02
      0.4573695180D+03  0.1403732281D-01
      0.1039486850D+03  0.6884262226D-01
      0.2921015530D+02  0.2321844432D+00
      0.9286662960D+01  0.4679413484D+00
      0.3163926960D+01  0.3623119853D+00
 SP   3 1.00       0.000000000000
      0.7868272350D+01 -0.1193324198D+00  0.6899906659D-01
      0.1881288540D+01 -0.1608541517D+00  0.3164239610D+00
      0.5442492580D+00  0.1143456438D+01  0.7443082909D+00
 SP   1 1.00       0.000000000000
      0.1687144782D+00  0.1000000000D+01  0.1000000000D+01
 D   1 1.00       0.000000000000
      0.8000000000D+00  0.1000000000D+01
 ****
      2 0
 S   3 1.00       0.000000000000
      0.1873113696D+02  0.3349460434D-01
      0.2825394365D+01  0.2347269535D+00
      0.6401216923D+00  0.8137573261D+00
 S   1 1.00       0.000000000000
      0.1612777588D+00  0.1000000000D+01
 P   1 1.00       0.000000000000
      0.1100000000D+01  0.1000000000D+01
 ****
      3 0
 S   3 1.00       0.000000000000
      0.1873113696D+02  0.3349460434D-01
      0.2825394365D+01  0.2347269535D+00
      0.6401216923D+00  0.8137573261D+00
 S   1 1.00       0.000000000000
      0.1612777588D+00  0.1000000000D+01
 P   1 1.00       0.000000000000
      0.1100000000D+01  0.1000000000D+01
 ****
      4 0
 S   6 1.00       0.000000000000
      0.3047524880D+04  0.1834737132D-02
      0.4573695180D+03  0.1403732281D-01
      0.1039486850D+03  0.6884262226D-01
      0.2921015530D+02  0.2321844432D+00
      0.9286662960D+01  0.4679413484D+00
      0.3163926960D+01  0.3623119853D+00
 SP   3 1.00       0.000000000000
      0.7868272350D+01 -0.1193324198D+00  0.6899906659D-01
      0.1881288540D+01 -0.1608541517D+00  0.3164239610D+00
      0.5442492580D+00  0.1143456438D+01  0.7443082909D+00
 SP   1 1.00       0.000000000000
      0.1687144782D+00  0.1000000000D+01  0.1000000000D+01
 D   1 1.00       0.000000000000
      0.8000000000D+00  0.1000000000D+01
 ****
      5 0
 S   6 1.00       0.000000000000
      0.5484671660D+04  0.1831074430D-02
      0.8252349460D+03  0.1395017220D-01
      0.1880469580D+03  0.6844507810D-01
      0.5296450000D+02  0.2327143360D+00
      0.1689757040D+02  0.4701928980D+00
      0.5799635340D+01  0.3585208530D+00
 SP   3 1.00       0.000000000000
      0.1553961625D+02 -0.1107775495D+00  0.7087426823D-01
      0.3599933586D+01 -0.1480262627D+00  0.3397528391D+00
      0.1013761750D+01  0.1130767015D+01  0.7271585773D+00
 SP   1 1.00       0.000000000000
      0.2700058226D+00  0.1000000000D+01  0.1000000000D+01
 D   1 1.00       0.000000000000
      0.8000000000D+00  0.1000000000D+01
 ****
      6 0
 S   3 1.00       0.000000000000
      0.1873113696D+02  0.3349460434D-01
      0.2825394365D+01  0.2347269535D+00
      0.6401216923D+00  0.8137573261D+00
 S   1 1.00       0.000000000000
      0.1612777588D+00  0.1000000000D+01
 P   1 1.00       0.000000000000
      0.1100000000D+01  0.1000000000D+01
 ****
      7 0
 S   6 1.00       0.000000000000
      0.3047524880D+04  0.1834737132D-02
      0.4573695180D+03  0.1403732281D-01
      0.1039486850D+03  0.6884262226D-01
      0.2921015530D+02  0.2321844432D+00
      0.9286662960D+01  0.4679413484D+00
      0.3163926960D+01  0.3623119853D+00
 SP   3 1.00       0.000000000000
      0.7868272350D+01 -0.1193324198D+00  0.6899906659D-01
      0.1881288540D+01 -0.1608541517D+00  0.3164239610D+00
      0.5442492580D+00  0.1143456438D+01  0.7443082909D+00
 SP   1 1.00       0.000000000000
      0.1687144782D+00  0.1000000000D+01  0.1000000000D+01
 D   1 1.00       0.000000000000
      0.8000000000D+00  0.1000000000D+01
 ****
      8 0
 S   6 1.00       0.000000000000
      0.3047524880D+04  0.1834737132D-02
      0.4573695180D+03  0.1403732281D-01
      0.1039486850D+03  0.6884262226D-01
      0.2921015530D+02  0.2321844432D+00
      0.9286662960D+01  0.4679413484D+00
      0.3163926960D+01  0.3623119853D+00
 SP   3 1.00       0.000000000000
      0.7868272350D+01 -0.1193324198D+00  0.6899906659D-01
      0.1881288540D+01 -0.1608541517D+00  0.3164239610D+00
      0.5442492580D+00  0.1143456438D+01  0.7443082909D+00
 SP   1 1.00       0.000000000000
      0.1687144782D+00  0.1000000000D+01  0.1000000000D+01
 D   1 1.00       0.000000000000
      0.8000000000D+00  0.1000000000D+01
 ****
      9 0
 S   6 1.00       0.000000000000
      0.3047524880D+04  0.1834737132D-02
      0.4573695180D+03  0.1403732281D-01
      0.1039486850D+03  0.6884262226D-01
      0.2921015530D+02  0.2321844432D+00
      0.9286662960D+01  0.4679413484D+00
      0.3163926960D+01  0.3623119853D+00
 SP   3 1.00       0.000000000000
      0.7868272350D+01 -0.1193324198D+00  0.6899906659D-01
      0.1881288540D+01 -0.1608541517D+00  0.3164239610D+00
      0.5442492580D+00  0.1143456438D+01  0.7443082909D+00
 SP   1 1.00       0.000000000000
      0.1687144782D+00  0.1000000000D+01  0.1000000000D+01
 D   1 1.00       0.000000000000
      0.8000000000D+00  0.1000000000D+01
 ****
     10 0
 S   6 1.00       0.000000000000
      0.3047524880D+04  0.1834737132D-02
      0.4573695180D+03  0.1403732281D-01
      0.1039486850D+03  0.6884262226D-01
      0.2921015530D+02  0.2321844432D+00
      0.9286662960D+01  0.4679413484D+00
      0.3163926960D+01  0.3623119853D+00
 SP   3 1.00       0.000000000000
      0.7868272350D+01 -0.1193324198D+00  0.6899906659D-01
      0.1881288540D+01 -0.1608541517D+00  0.3164239610D+00
      0.5442492580D+00  0.1143456438D+01  0.7443082909D+00
 SP   1 1.00       0.000000000000
      0.1687144782D+00  0.1000000000D+01  0.1000000000D+01
 D   1 1.00       0.000000000000
      0.8000000000D+00  0.1000000000D+01
 ****
     11 0
 S   3 1.00       0.000000000000
      0.1873113696D+02  0.3349460434D-01
      0.2825394365D+01  0.2347269535D+00
      0.6401216923D+00  0.8137573261D+00
 S   1 1.00       0.000000000000
      0.1612777588D+00  0.1000000000D+01
 P   1 1.00       0.000000000000
      0.1100000000D+01  0.1000000000D+01
 ****
     12 0
 S   6 1.00       0.000000000000
      0.4173511460D+04  0.1834772160D-02
      0.6274579110D+03  0.1399462700D-01
      0.1429020930D+03  0.6858655181D-01
      0.4023432930D+02  0.2322408730D+00
      0.1282021290D+02  0.4690699481D+00
      0.4390437010D+01  0.3604551991D+00
 SP   3 1.00       0.000000000000
      0.1162636186D+02 -0.1149611817D+00  0.6757974388D-01
      0.2716279807D+01 -0.1691174786D+00  0.3239072959D+00
      0.7722183966D+00  0.1145851947D+01  0.7408951398D+00
 SP   1 1.00       0.000000000000
      0.2120314975D+00  0.1000000000D+01  0.1000000000D+01
 D   1 1.00       0.000000000000
      0.8000000000D+00  0.1000000000D+01
 ****
     13 0
 S   3 1.00       0.000000000000
      0.1873113696D+02  0.3349460434D-01
      0.2825394365D+01  0.2347269535D+00
      0.6401216923D+00  0.8137573261D+00
 S   1 1.00       0.000000000000
      0.1612777588D+00  0.1000000000D+01
 P   1 1.00       0.000000000000
      0.1100000000D+01  0.1000000000D+01
 ****
     14 0
 S   6 1.00       0.000000000000
      0.3047524880D+04  0.1834737132D-02
      0.4573695180D+03  0.1403732281D-01
      0.1039486850D+03  0.6884262226D-01
      0.2921015530D+02  0.2321844432D+00
      0.9286662960D+01  0.4679413484D+00
      0.3163926960D+01  0.3623119853D+00
 SP   3 1.00       0.000000000000
      0.7868272350D+01 -0.1193324198D+00  0.6899906659D-01
      0.1881288540D+01 -0.1608541517D+00  0.3164239610D+00
      0.5442492580D+00  0.1143456438D+01  0.7443082909D+00
 SP   1 1.00       0.000000000000
      0.1687144782D+00  0.1000000000D+01  0.1000000000D+01
 D   1 1.00       0.000000000000
      0.8000000000D+00  0.1000000000D+01
 ****
     15 0
 S   3 1.00       0.000000000000
      0.1873113696D+02  0.3349460434D-01
      0.2825394365D+01  0.2347269535D+00
      0.6401216923D+00  0.8137573261D+00
 S   1 1.00       0.000000000000
      0.1612777588D+00  0.1000000000D+01
 P   1 1.00       0.000000000000
      0.1100000000D+01  0.1000000000D+01
 ****
     16 0
 S   3 1.00       0.000000000000
      0.1873113696D+02  0.3349460434D-01
      0.2825394365D+01  0.2347269535D+00
      0.6401216923D+00  0.8137573261D+00
 S   1 1.00       0.000000000000
      0.1612777588D+00  0.1000000000D+01
 P   1 1.00       0.000000000000
      0.1100000000D+01  0.1000000000D+01
 ****
     17 0
 S   6 1.00       0.000000000000
      0.1941330000D+05  0.1851598923D-02
      0.2909420000D+04  0.1420619174D-01
      0.6613640000D+03  0.6999945928D-01
      0.1857590000D+03  0.2400788603D+00
      0.5919430000D+02  0.4847617180D+00
      0.2003100000D+02  0.3351998050D+00
 SP   6 1.00       0.000000000000
      0.3394780000D+03 -0.2782170105D-02  0.4564616191D-02
      0.8101010000D+02 -0.3604990135D-01  0.3369357188D-01
      0.2587800000D+02 -0.1166310044D+00  0.1397548834D+00
      0.9452210000D+01  0.9683280364D-01  0.3393617168D+00
      0.3665660000D+01  0.6144180231D+00  0.4509206237D+00
      0.1467460000D+01  0.4037980152D+00  0.2385858009D+00
 SP   3 1.00       0.000000000000
      0.2156230000D+01 -0.2529241139D+00 -0.1776531273D-01
      0.7489970000D+00  0.3285184468D-01  0.2740581964D+00
      0.2831450000D+00  0.1081254762D+01  0.7854215630D+00
 SP   1 1.00       0.000000000000
      0.9983170000D-01  0.1000000000D+01  0.1000000000D+01
 D   1 1.00       0.000000000000
      0.5500000000D+00  0.1000000000D+01
 ****
     18 0
 S   6 1.00       0.000000000000
      0.1941330000D+05  0.1851598923D-02
      0.2909420000D+04  0.1420619174D-01
      0.6613640000D+03  0.6999945928D-01
      0.1857590000D+03  0.2400788603D+00
      0.5919430000D+02  0.4847617180D+00
      0.2003100000D+02  0.3351998050D+00
 SP   6 1.00       0.000000000000
      0.3394780000D+03 -0.2782170105D-02  0.4564616191D-02
      0.8101010000D+02 -0.3604990135D-01  0.3369357188D-01
      0.2587800000D+02 -0.1166310044D+00  0.1397548834D+00
      0.9452210000D+01  0.9683280364D-01  0.3393617168D+00
      0.3665660000D+01  0.6144180231D+00  0.4509206237D+00
      0.1467460000D+01  0.4037980152D+00  0.2385858009D+00
 SP   3 1.00       0.000000000000
      0.2156230000D+01 -0.2529241139D+00 -0.1776531273D-01
      0.7489970000D+00  0.3285184468D-01  0.2740581964D+00
      0.2831450000D+00  0.1081254762D+01  0.7854215630D+00
 SP   1 1.00       0.000000000000
      0.9983170000D-01  0.1000000000D+01  0.1000000000D+01
 D   1 1.00       0.000000000000
      0.5500000000D+00  0.1000000000D+01
 ****
     19 0
 S   6 1.00       0.000000000000
      0.5484671660D+04  0.1831074430D-02
      0.8252349460D+03  0.1395017220D-01
      0.1880469580D+03  0.6844507810D-01
      0.5296450000D+02  0.2327143360D+00
      0.1689757040D+02  0.4701928980D+00
      0.5799635340D+01  0.3585208530D+00
 SP   3 1.00       0.000000000000
      0.1553961625D+02 -0.1107775495D+00  0.7087426823D-01
      0.3599933586D+01 -0.1480262627D+00  0.3397528391D+00
      0.1013761750D+01  0.1130767015D+01  0.7271585773D+00
 SP   1 1.00       0.000000000000
      0.2700058226D+00  0.1000000000D+01  0.1000000000D+01
 D   1 1.00       0.000000000000
      0.8000000000D+00  0.1000000000D+01
 ****
     20 0
 S   6 1.00       0.000000000000
      0.5484671660D+04  0.1831074430D-02
      0.8252349460D+03  0.1395017220D-01
      0.1880469580D+03  0.6844507810D-01
      0.5296450000D+02  0.2327143360D+00
      0.1689757040D+02  0.4701928980D+00
      0.5799635340D+01  0.3585208530D+00
 SP   3 1.00       0.000000000000
      0.1553961625D+02 -0.1107775495D+00  0.7087426823D-01
      0.3599933586D+01 -0.1480262627D+00  0.3397528391D+00
      0.1013761750D+01  0.1130767015D+01  0.7271585773D+00
 SP   1 1.00       0.000000000000
      0.2700058226D+00  0.1000000000D+01  0.1000000000D+01
 D   1 1.00       0.000000000000
      0.8000000000D+00  0.1000000000D+01
 ****
     21 0
 S   6 1.00       0.000000000000
      0.5484671660D+04  0.1831074430D-02
      0.8252349460D+03  0.1395017220D-01
      0.1880469580D+03  0.6844507810D-01
      0.5296450000D+02  0.2327143360D+00
      0.1689757040D+02  0.4701928980D+00
      0.5799635340D+01  0.3585208530D+00
 SP   3 1.00       0.000000000000
      0.1553961625D+02 -0.1107775495D+00  0.7087426823D-01
      0.3599933586D+01 -0.1480262627D+00  0.3397528391D+00
      0.1013761750D+01  0.1130767015D+01  0.7271585773D+00
 SP   1 1.00       0.000000000000
      0.2700058226D+00  0.1000000000D+01  0.1000000000D+01
 D   1 1.00       0.000000000000
      0.8000000000D+00  0.1000000000D+01
 ****
     22 0
 S   6 1.00       0.000000000000
      0.5484671660D+04  0.1831074430D-02
      0.8252349460D+03  0.1395017220D-01
      0.1880469580D+03  0.6844507810D-01
      0.5296450000D+02  0.2327143360D+00
      0.1689757040D+02  0.4701928980D+00
      0.5799635340D+01  0.3585208530D+00
 SP   3 1.00       0.000000000000
      0.1553961625D+02 -0.1107775495D+00  0.7087426823D-01
      0.3599933586D+01 -0.1480262627D+00  0.3397528391D+00
      0.1013761750D+01  0.1130767015D+01  0.7271585773D+00
 SP   1 1.00       0.000000000000
      0.2700058226D+00  0.1000000000D+01  0.1000000000D+01
 D   1 1.00       0.000000000000
      0.8000000000D+00  0.1000000000D+01
 ****
     23 0
 S   6 1.00       0.000000000000
      0.5484671660D+04  0.1831074430D-02
      0.8252349460D+03  0.1395017220D-01
      0.1880469580D+03  0.6844507810D-01
      0.5296450000D+02  0.2327143360D+00
      0.1689757040D+02  0.4701928980D+00
      0.5799635340D+01  0.3585208530D+00
 SP   3 1.00       0.000000000000
      0.1553961625D+02 -0.1107775495D+00  0.7087426823D-01
      0.3599933586D+01 -0.1480262627D+00  0.3397528391D+00
      0.1013761750D+01  0.1130767015D+01  0.7271585773D+00
 SP   1 1.00       0.000000000000
      0.2700058226D+00  0.1000000000D+01  0.1000000000D+01
 D   1 1.00       0.000000000000
      0.8000000000D+00  0.1000000000D+01
 ****
     24 0
 S   6 1.00       0.000000000000
      0.5484671660D+04  0.1831074430D-02
      0.8252349460D+03  0.1395017220D-01
      0.1880469580D+03  0.6844507810D-01
      0.5296450000D+02  0.2327143360D+00
      0.1689757040D+02  0.4701928980D+00
      0.5799635340D+01  0.3585208530D+00
 SP   3 1.00       0.000000000000
      0.1553961625D+02 -0.1107775495D+00  0.7087426823D-01
      0.3599933586D+01 -0.1480262627D+00  0.3397528391D+00
      0.1013761750D+01  0.1130767015D+01  0.7271585773D+00
 SP   1 1.00       0.000000000000
      0.2700058226D+00  0.1000000000D+01  0.1000000000D+01
 D   1 1.00       0.000000000000
      0.8000000000D+00  0.1000000000D+01
 ****
     25 0
 S   3 1.00       0.000000000000
      0.1873113696D+02  0.3349460434D-01
      0.2825394365D+01  0.2347269535D+00
      0.6401216923D+00  0.8137573261D+00
 S   1 1.00       0.000000000000
      0.1612777588D+00  0.1000000000D+01
 P   1 1.00       0.000000000000
      0.1100000000D+01  0.1000000000D+01
 ****
     26 0
 S   3 1.00       0.000000000000
      0.1873113696D+02  0.3349460434D-01
      0.2825394365D+01  0.2347269535D+00
      0.6401216923D+00  0.8137573261D+00
 S   1 1.00       0.000000000000
      0.1612777588D+00  0.1000000000D+01
 P   1 1.00       0.000000000000
      0.1100000000D+01  0.1000000000D+01
 ****

   308 basis functions,   587 primitive gaussians,   308 cartesian basis functions
    73 alpha electrons       72 beta electrons
       nuclear repulsion energy      1632.0776432005 Hartrees.
 NAtoms=   26 NActive=   26 NUniq=   26 SFac= 1.00D+00 NAtFMM=   60 NAOKFM=F Big=F
 ------------------------------------------------------------------------------
 Polarizable Continuum Model (PCM)
 =================================
 Model                : PCM.
 Atomic radii         : UFF (Universal Force Field).
 Polarization charges : Total charges.
 Charge compensation  : None.
 Solution method      : On-the-fly selection.
 Cavity type          : Scaled VdW (van der Waals Surface) (Alpha=1.100).
 Cavity algorithm     : GePol (No added spheres)
                        Default sphere list used, NSphG=   26.
                        Lebedev-Laikov grids with approx.  5.0 points / Ang**2.
                        Smoothing algorithm: York/Karplus (Gamma=1.0000).
                        Polarization charges: spherical gaussians, with
                                              point-specific exponents (IZeta= 3).
                        Self-potential: point-specific (ISelfS= 7).
                        Self-field    : sphere-specific E.n sum rule (ISelfD= 2).
 Solvent              : Water, Eps=  78.355300 Eps(inf)=   1.777849
 ------------------------------------------------------------------------------
 ExpMin= 9.98D-02 ExpMax= 1.94D+04 ExpMxC= 2.91D+03 IAcc=3 IRadAn=         5 AccDes= 0.00D+00
 Harris functional with IExCor=  402 and IRadAn=       5 diagonalized for initial guess.
 HarFok:  IExCor=  402 AccDes= 0.00D+00 IRadAn=         5 IDoV= 1 UseB2=F ITyADJ=14
 ICtDFT=  3500011 ScaDFX=  1.000000  1.000000  1.000000  1.000000
 FoFCou: FMM=F IPFlag=           0 FMFlag=      100000 FMFlg1=           0
         NFxFlg=           0 DoJE=T BraDBF=F KetDBF=T FulRan=T
         wScrn=  0.000000 ICntrl=       500 IOpCl=  0 I1Cent=   200000004 NGrid=           0
         NMat0=    1 NMatS0=      1 NMatT0=    0 NMatD0=    1 NMtDS0=    0 NMtDT0=    0
 Petite list used in FoFCou.
 Initial guess <Sx>= 0.0000 <Sy>= 0.0000 <Sz>= 0.5000 <S**2>= 0.7500 S= 0.5000
 Inv3:  Mode=1 IEnd=    14692107.
 Iteration    1 A*A^-1 deviation from unit magnitude is 9.55D-15 for    273.
 Iteration    1 A*A^-1 deviation from orthogonality  is 4.65D-15 for   2036   1894.
 Iteration    1 A^-1*A deviation from unit magnitude is 9.55D-15 for    273.
 Iteration    1 A^-1*A deviation from orthogonality  is 6.46D-14 for   1091   1064.
 Restarting incremental Fock formation.
 Error on total polarization charges =  0.00739
 SCF Done:  E(UB3LYP) =  -1536.42548030     A.U. after   31 cycles
            NFock= 31  Conv=0.51D-08     -V/T= 2.0068
 <Sx>= 0.0000 <Sy>= 0.0000 <Sz>= 0.5000 <S**2>= 0.7545 S= 0.5023
 <L.S>= 0.000000000000E+00
 Annihilation of the first spin contaminant:
 S**2 before annihilation     0.7545,   after     0.7500

 **********************************************************************

            Population analysis using the SCF density.

 **********************************************************************

 Orbital symmetries:
 Alpha Orbitals:
       Occupied  (A) (A) (A) (A) (A) (A) (A) (A) (A) (A) (A) (A)
                 (A) (A) (A) (A) (A) (A) (A) (A) (A) (A) (A) (A)
                 (A) (A) (A) (A) (A) (A) (A) (A) (A) (A) (A) (A)
                 (A) (A) (A) (A) (A) (A) (A) (A) (A) (A) (A) (A)
                 (A) (A) (A) (A) (A) (A) (A) (A) (A) (A) (A) (A)
                 (A) (A) (A) (A) (A) (A) (A) (A) (A) (A) (A) (A)
                 (A)
       Virtual   (A) (A) (A) (A) (A) (A) (A) (A) (A) (A) (A) (A)
                 (A) (A) (A) (A) (A) (A) (A) (A) (A) (A) (A) (A)
                 (A) (A) (A) (A) (A) (A) (A) (A) (A) (A) (A) (A)
                 (A) (A) (A) (A) (A) (A) (A) (A) (A) (A) (A) (A)
                 (A) (A) (A) (A) (A) (A) (A) (A) (A) (A) (A) (A)
                 (A) (A) (A) (A) (A) (A) (A) (A) (A) (A) (A) (A)
                 (A) (A) (A) (A) (A) (A) (A) (A) (A) (A) (A) (A)
                 (A) (A) (A) (A) (A) (A) (A) (A) (A) (A) (A) (A)
                 (A) (A) (A) (A) (A) (A) (A) (A) (A) (A) (A) (A)
                 (A) (A) (A) (A) (A) (A) (A) (A) (A) (A) (A) (A)
                 (A) (A) (A) (A) (A) (A) (A) (A) (A) (A) (A) (A)
                 (A) (A) (A) (A) (A) (A) (A) (A) (A) (A) (A) (A)
                 (A) (A) (A) (A) (A) (A) (A) (A) (A) (A) (A) (A)
                 (A) (A) (A) (A) (A) (A) (A) (A) (A) (A) (A) (A)
                 (A) (A) (A) (A) (A) (A) (A) (A) (A) (A) (A) (A)
                 (A) (A) (A) (A) (A) (A) (A) (A) (A) (A) (A) (A)
                 (A) (A) (A) (A) (A) (A) (A) (A) (A) (A) (A) (A)
                 (A) (A) (A) (A) (A) (A) (A) (A) (A) (A) (A) (A)
                 (A) (A) (A) (A) (A) (A) (A) (A) (A) (A) (A) (A)
                 (A) (A) (A) (A) (A) (A) (A)
 Beta  Orbitals:
       Occupied  (A) (A) (A) (A) (A) (A) (A) (A) (A) (A) (A) (A)
                 (A) (A) (A) (A) (A) (A) (A) (A) (A) (A) (A) (A)
                 (A) (A) (A) (A) (A) (A) (A) (A) (A) (A) (A) (A)
                 (A) (A) (A) (A) (A) (A) (A) (A) (A) (A) (A) (A)
                 (A) (A) (A) (A) (A) (A) (A) (A) (A) (A) (A) (A)
                 (A) (A) (A) (A) (A) (A) (A) (A) (A) (A) (A) (A)
       Virtual   (A) (A) (A) (A) (A) (A) (A) (A) (A) (A) (A) (A)
                 (A) (A) (A) (A) (A) (A) (A) (A) (A) (A) (A) (A)
                 (A) (A) (A) (A) (A) (A) (A) (A) (A) (A) (A) (A)
                 (A) (A) (A) (A) (A) (A) (A) (A) (A) (A) (A) (A)
                 (A) (A) (A) (A) (A) (A) (A) (A) (A) (A) (A) (A)
                 (A) (A) (A) (A) (A) (A) (A) (A) (A) (A) (A) (A)
                 (A) (A) (A) (A) (A) (A) (A) (A) (A) (A) (A) (A)
                 (A) (A) (A) (A) (A) (A) (A) (A) (A) (A) (A) (A)
                 (A) (A) (A) (A) (A) (A) (A) (A) (A) (A) (A) (A)
                 (A) (A) (A) (A) (A) (A) (A) (A) (A) (A) (A) (A)
                 (A) (A) (A) (A) (A) (A) (A) (A) (A) (A) (A) (A)
                 (A) (A) (A) (A) (A) (A) (A) (A) (A) (A) (A) (A)
                 (A) (A) (A) (A) (A) (A) (A) (A) (A) (A) (A) (A)
                 (A) (A) (A) (A) (A) (A) (A) (A) (A) (A) (A) (A)
                 (A) (A) (A) (A) (A) (A) (A) (A) (A) (A) (A) (A)
                 (A) (A) (A) (A) (A) (A) (A) (A) (A) (A) (A) (A)
                 (A) (A) (A) (A) (A) (A) (A) (A) (A) (A) (A) (A)
                 (A) (A) (A) (A) (A) (A) (A) (A) (A) (A) (A) (A)
                 (A) (A) (A) (A) (A) (A) (A) (A) (A) (A) (A) (A)
                 (A) (A) (A) (A) (A) (A) (A) (A)
 The electronic state is 2-A.
 Alpha  occ. eigenvalues --  -77.20756 -77.19807 -19.22389 -19.17243 -19.17082
 Alpha  occ. eigenvalues --  -19.13333 -19.12203 -19.10886 -19.10325 -14.34306
 Alpha  occ. eigenvalues --  -10.29991 -10.23059 -10.22908 -10.22049 -10.21862
 Alpha  occ. eigenvalues --  -10.21114 -10.20414  -6.65769  -6.64678  -4.82173
 Alpha  occ. eigenvalues --   -4.82105  -4.81888  -4.81110  -4.80998  -4.80821
 Alpha  occ. eigenvalues --   -1.08789  -1.04403  -1.03891  -0.98253  -0.96517
 Alpha  occ. eigenvalues --   -0.94845  -0.94686  -0.92928  -0.83282  -0.79119
 Alpha  occ. eigenvalues --   -0.75775  -0.67430  -0.63687  -0.61214  -0.59509
 Alpha  occ. eigenvalues --   -0.57453  -0.54836  -0.53199  -0.52201  -0.49310
 Alpha  occ. eigenvalues --   -0.47821  -0.46063  -0.45600  -0.44060  -0.42868
 Alpha  occ. eigenvalues --   -0.41889  -0.41209  -0.40763  -0.40365  -0.40012
 Alpha  occ. eigenvalues --   -0.39221  -0.38737  -0.37154  -0.36706  -0.36572
 Alpha  occ. eigenvalues --   -0.34437  -0.33585  -0.32330  -0.31344  -0.30131
 Alpha  occ. eigenvalues --   -0.29759  -0.29103  -0.28656  -0.28259  -0.27810
 Alpha  occ. eigenvalues --   -0.26918  -0.26643  -0.26095
 Alpha virt. eigenvalues --   -0.03298  -0.01913   0.04571   0.06358   0.07745
 Alpha virt. eigenvalues --    0.08351   0.10490   0.11414   0.11905   0.12707
 Alpha virt. eigenvalues --    0.13313   0.14514   0.15765   0.16496   0.16903
 Alpha virt. eigenvalues --    0.17542   0.18733   0.18856   0.19144   0.21821
 Alpha virt. eigenvalues --    0.22851   0.24598   0.24904   0.25833   0.30508
 Alpha virt. eigenvalues --    0.31541   0.32647   0.33888   0.35622   0.36958
 Alpha virt. eigenvalues --    0.38541   0.39462   0.41491   0.42796   0.43593
 Alpha virt. eigenvalues --    0.45547   0.46222   0.51575   0.53357   0.54266
 Alpha virt. eigenvalues --    0.55163   0.55928   0.57456   0.58200   0.58836
 Alpha virt. eigenvalues --    0.59569   0.60754   0.61178   0.62800   0.64781
 Alpha virt. eigenvalues --    0.65479   0.66092   0.67637   0.69891   0.72458
 Alpha virt. eigenvalues --    0.73323   0.75570   0.76088   0.78645   0.79302
 Alpha virt. eigenvalues --    0.79549   0.81060   0.81450   0.81707   0.83056
 Alpha virt. eigenvalues --    0.85056   0.85285   0.85746   0.86243   0.88857
 Alpha virt. eigenvalues --    0.89040   0.89951   0.90994   0.93299   0.94158
 Alpha virt. eigenvalues --    0.94386   0.95986   0.96852   0.99664   1.00459
 Alpha virt. eigenvalues --    1.01115   1.02160   1.03305   1.03975   1.04229
 Alpha virt. eigenvalues --    1.05268   1.06058   1.06149   1.07971   1.08408
 Alpha virt. eigenvalues --    1.09418   1.11900   1.12370   1.13397   1.15244
 Alpha virt. eigenvalues --    1.16916   1.17238   1.19088   1.19874   1.21696
 Alpha virt. eigenvalues --    1.24350   1.24541   1.25105   1.27679   1.29459
 Alpha virt. eigenvalues --    1.32760   1.33068   1.35637   1.37485   1.38628
 Alpha virt. eigenvalues --    1.39972   1.42892   1.43745   1.45894   1.46348
 Alpha virt. eigenvalues --    1.48138   1.51025   1.51691   1.53868   1.56107
 Alpha virt. eigenvalues --    1.58923   1.60231   1.62108   1.65508   1.68079
 Alpha virt. eigenvalues --    1.70410   1.71926   1.73022   1.74062   1.75862
 Alpha virt. eigenvalues --    1.77136   1.78828   1.80022   1.81072   1.81692
 Alpha virt. eigenvalues --    1.81760   1.82835   1.83242   1.84240   1.85425
 Alpha virt. eigenvalues --    1.86802   1.88293   1.88861   1.89581   1.90535
 Alpha virt. eigenvalues --    1.90947   1.93827   1.96569   1.97322   1.97818
 Alpha virt. eigenvalues --    1.98568   2.00440   2.01974   2.04070   2.07170
 Alpha virt. eigenvalues --    2.08227   2.09490   2.10176   2.11593   2.11891
 Alpha virt. eigenvalues --    2.16711   2.18103   2.19514   2.21417   2.25524
 Alpha virt. eigenvalues --    2.25690   2.28546   2.30027   2.30714   2.31711
 Alpha virt. eigenvalues --    2.33794   2.35050   2.36489   2.37444   2.38824
 Alpha virt. eigenvalues --    2.41053   2.41945   2.45436   2.47924   2.49364
 Alpha virt. eigenvalues --    2.49652   2.51329   2.51984   2.53377   2.56564
 Alpha virt. eigenvalues --    2.60827   2.62148   2.63504   2.63908   2.65401
 Alpha virt. eigenvalues --    2.66900   2.67611   2.69842   2.72081   2.73019
 Alpha virt. eigenvalues --    2.73942   2.76095   2.78078   2.79794   2.82589
 Alpha virt. eigenvalues --    2.83487   2.84708   2.85714   2.91082   2.95367
 Alpha virt. eigenvalues --    2.98670   3.06418   3.17612   3.23318   3.25644
 Alpha virt. eigenvalues --    3.30625   3.38696   3.40060   3.41273   3.44128
 Alpha virt. eigenvalues --    3.45727   3.47397   3.50441   3.56178   3.78553
 Alpha virt. eigenvalues --    3.79007   3.83870   3.94430   3.96757   4.04014
 Alpha virt. eigenvalues --    4.10350   4.10903   4.17345   4.19432   4.21571
 Alpha virt. eigenvalues --    4.31979   4.35778   4.46326   4.61863   4.74927
  Beta  occ. eigenvalues --  -77.20767 -77.19808 -19.21848 -19.17131 -19.17001
  Beta  occ. eigenvalues --  -19.12813 -19.11821 -19.10782 -19.10179 -14.34252
  Beta  occ. eigenvalues --  -10.29630 -10.23048 -10.22906 -10.22041 -10.21832
  Beta  occ. eigenvalues --  -10.21116 -10.20403  -6.65782  -6.64680  -4.82204
  Beta  occ. eigenvalues --   -4.82078  -4.81917  -4.81120  -4.80981  -4.80828
  Beta  occ. eigenvalues --   -1.07711  -1.03999  -1.03535  -0.97380  -0.96210
  Beta  occ. eigenvalues --   -0.94764  -0.93523  -0.92586  -0.83062  -0.78907
  Beta  occ. eigenvalues --   -0.75295  -0.66823  -0.63625  -0.61023  -0.58683
  Beta  occ. eigenvalues --   -0.56980  -0.54542  -0.52685  -0.51635  -0.49204
  Beta  occ. eigenvalues --   -0.47477  -0.45781  -0.45301  -0.43767  -0.42185
  Beta  occ. eigenvalues --   -0.41604  -0.41027  -0.40566  -0.40005  -0.39519
  Beta  occ. eigenvalues --   -0.38847  -0.38027  -0.36553  -0.36498  -0.34475
  Beta  occ. eigenvalues --   -0.33773  -0.32514  -0.31825  -0.30574  -0.29380
  Beta  occ. eigenvalues --   -0.28716  -0.27877  -0.27659  -0.27227  -0.26522
  Beta  occ. eigenvalues --   -0.26283  -0.26013
  Beta virt. eigenvalues --   -0.21578  -0.03248  -0.01866   0.05021   0.06681
  Beta virt. eigenvalues --    0.08087   0.08668   0.10710   0.11947   0.12073
  Beta virt. eigenvalues --    0.12910   0.13655   0.14787   0.16029   0.16624
  Beta virt. eigenvalues --    0.17197   0.17661   0.18875   0.19063   0.19213
  Beta virt. eigenvalues --    0.22244   0.23297   0.24748   0.25048   0.25979
  Beta virt. eigenvalues --    0.30573   0.31658   0.32753   0.34004   0.35710
  Beta virt. eigenvalues --    0.37028   0.38588   0.39617   0.41659   0.42972
  Beta virt. eigenvalues --    0.43671   0.45757   0.46309   0.51615   0.53588
  Beta virt. eigenvalues --    0.54431   0.55367   0.56076   0.57541   0.58266
  Beta virt. eigenvalues --    0.59008   0.59630   0.60831   0.61279   0.62969
  Beta virt. eigenvalues --    0.64924   0.65570   0.66188   0.67727   0.69982
  Beta virt. eigenvalues --    0.72637   0.73545   0.75726   0.76304   0.78777
  Beta virt. eigenvalues --    0.79380   0.79693   0.81320   0.81573   0.81904
  Beta virt. eigenvalues --    0.83106   0.85155   0.85413   0.85850   0.86444
  Beta virt. eigenvalues --    0.89003   0.89386   0.90207   0.91111   0.93456
  Beta virt. eigenvalues --    0.94447   0.94819   0.96118   0.97131   0.99982
  Beta virt. eigenvalues --    1.00706   1.01476   1.02531   1.03621   1.04266
  Beta virt. eigenvalues --    1.04583   1.05447   1.06250   1.06530   1.08234
  Beta virt. eigenvalues --    1.08720   1.09686   1.12240   1.12559   1.13696
  Beta virt. eigenvalues --    1.15584   1.17323   1.17397   1.19328   1.20133
  Beta virt. eigenvalues --    1.21954   1.24625   1.24705   1.25293   1.27911
  Beta virt. eigenvalues --    1.29658   1.33114   1.33204   1.35746   1.37686
  Beta virt. eigenvalues --    1.38778   1.40029   1.43019   1.43877   1.45981
  Beta virt. eigenvalues --    1.46448   1.48517   1.51448   1.52123   1.54154
  Beta virt. eigenvalues --    1.56351   1.59215   1.60330   1.62512   1.65785
  Beta virt. eigenvalues --    1.68223   1.70704   1.72190   1.73333   1.74329
  Beta virt. eigenvalues --    1.76194   1.77326   1.79314   1.80321   1.81316
  Beta virt. eigenvalues --    1.82147   1.82267   1.83239   1.83786   1.84934
  Beta virt. eigenvalues --    1.85879   1.87226   1.88619   1.89282   1.89775
  Beta virt. eigenvalues --    1.90791   1.91311   1.94127   1.96691   1.97680
  Beta virt. eigenvalues --    1.98200   1.99334   2.00856   2.02190   2.04631
  Beta virt. eigenvalues --    2.07705   2.08379   2.09617   2.10341   2.11770
  Beta virt. eigenvalues --    2.11999   2.16927   2.18541   2.19952   2.21827
  Beta virt. eigenvalues --    2.25722   2.26060   2.28740   2.30116   2.31063
  Beta virt. eigenvalues --    2.31862   2.33995   2.35379   2.36590   2.37620
  Beta virt. eigenvalues --    2.38865   2.41248   2.42095   2.45588   2.48124
  Beta virt. eigenvalues --    2.49545   2.49822   2.51511   2.52145   2.53593
  Beta virt. eigenvalues --    2.56765   2.60880   2.62253   2.63681   2.63980
  Beta virt. eigenvalues --    2.65516   2.66995   2.67702   2.69932   2.72153
  Beta virt. eigenvalues --    2.73146   2.74166   2.76372   2.78273   2.80081
  Beta virt. eigenvalues --    2.82990   2.83654   2.84837   2.85864   2.91203
  Beta virt. eigenvalues --    2.95799   2.98746   3.06488   3.17667   3.23342
  Beta virt. eigenvalues --    3.25700   3.30728   3.38738   3.40131   3.41332
  Beta virt. eigenvalues --    3.44189   3.45896   3.47461   3.50515   3.56246
  Beta virt. eigenvalues --    3.78692   3.79265   3.84284   3.94846   3.96918
  Beta virt. eigenvalues --    4.04402   4.10604   4.11107   4.17562   4.19505
  Beta virt. eigenvalues --    4.21816   4.32078   4.36096   4.46462   4.62140
  Beta virt. eigenvalues --    4.74964
     Alpha Molecular Orbital Coefficients:
                           1         2         3         4         5
                           O         O         O         O         O
     Eigenvalues --   -77.20756 -77.19807 -19.22389 -19.17243 -19.17082
   1 1   C  1S         -0.00001  -0.00001   0.00001  -0.00001   0.00001
   2        2S         -0.00000  -0.00002   0.00009  -0.00006   0.00001
   3        2PX         0.00003   0.00004  -0.00004   0.00006   0.00001
   4        2PY         0.00000  -0.00002   0.00001   0.00001  -0.00001
   5        2PZ        -0.00000  -0.00002   0.00006   0.00002   0.00000
   6        3S         -0.00021   0.00034   0.00016  -0.00020  -0.00025
   7        3PX        -0.00008   0.00015  -0.00017  -0.00120   0.00043
   8        3PY        -0.00015  -0.00018   0.00016  -0.00025  -0.00001
   9        3PZ        -0.00024   0.00010  -0.00022  -0.00004   0.00012
  10        4XX        -0.00004  -0.00002   0.00002  -0.00004   0.00002
  11        4YY        -0.00001  -0.00006   0.00003  -0.00001   0.00005
  12        4ZZ        -0.00002  -0.00003  -0.00005  -0.00001   0.00002
  13        4XY         0.00002   0.00002   0.00001   0.00001   0.00003
  14        4XZ         0.00001  -0.00000  -0.00001  -0.00003  -0.00000
  15        4YZ         0.00000  -0.00002   0.00001  -0.00000   0.00000
  16 2   H  1S          0.00001   0.00002  -0.00002  -0.00006  -0.00002
  17        2S         -0.00028  -0.00008  -0.00018   0.00009   0.00030
  18        3PX         0.00004   0.00001   0.00003   0.00004   0.00000
  19        3PY         0.00001  -0.00002  -0.00001   0.00001   0.00002
  20        3PZ        -0.00002  -0.00001  -0.00001   0.00001   0.00002
  21 3   H  1S         -0.00001  -0.00003   0.00002  -0.00003   0.00002
  22        2S         -0.00021  -0.00007   0.00017  -0.00006   0.00002
  23        3PX         0.00003  -0.00001  -0.00002   0.00001  -0.00002
  24        3PY        -0.00002   0.00001   0.00001  -0.00002  -0.00001
  25        3PZ         0.00001  -0.00000   0.00005   0.00001   0.00000
  26 4   C  1S         -0.00004  -0.00004   0.00001  -0.00001  -0.00001
  27        2S         -0.00005  -0.00006   0.00016  -0.00006  -0.00008
  28        2PX        -0.00004   0.00000   0.00007  -0.00001  -0.00001
  29        2PY        -0.00004   0.00004  -0.00009  -0.00005   0.00002
  30        2PZ        -0.00001   0.00002   0.00028   0.00001   0.00001
  31        3S          0.00092   0.00096  -0.00185   0.00045   0.00041
  32        3PX        -0.00034   0.00000  -0.00044  -0.00038   0.00018
  33        3PY        -0.00017   0.00048   0.00042   0.00021   0.00018
  34        3PZ        -0.00004   0.00002  -0.00093  -0.00001  -0.00068
  35        4XX        -0.00011  -0.00008   0.00006   0.00002  -0.00001
  36        4YY        -0.00008  -0.00015   0.00008  -0.00002   0.00004
  37        4ZZ        -0.00008  -0.00006   0.00036  -0.00002  -0.00006
  38        4XY        -0.00003   0.00001   0.00000   0.00002   0.00001
  39        4XZ        -0.00002  -0.00000   0.00005   0.00003  -0.00002
  40        4YZ        -0.00001  -0.00000  -0.00007   0.00000  -0.00000
  41 5   O  1S         -0.00000   0.00000   0.99266  -0.00003  -0.00005
  42        2S         -0.00001   0.00001   0.02582  -0.00010  -0.00014
  43        2PX         0.00001   0.00000  -0.00038   0.00002  -0.00000
  44        2PY        -0.00000  -0.00002   0.00081   0.00002  -0.00002
  45        2PZ         0.00002   0.00000  -0.00028  -0.00001   0.00003
  46        3S         -0.00014  -0.00017   0.01301   0.00046   0.00070
  47        3PX         0.00005  -0.00002   0.00001  -0.00014  -0.00005
  48        3PY         0.00003  -0.00004  -0.00003  -0.00020   0.00011
  49        3PZ         0.00008   0.00015  -0.00046  -0.00004  -0.00023
  50        4XX         0.00000  -0.00003  -0.00827  -0.00005  -0.00011
  51        4YY        -0.00004   0.00003  -0.00834  -0.00007  -0.00009
  52        4ZZ        -0.00002   0.00000  -0.00843  -0.00008  -0.00007
  53        4XY         0.00002  -0.00001   0.00004   0.00002   0.00000
  54        4XZ         0.00001  -0.00000  -0.00002  -0.00001   0.00001
  55        4YZ        -0.00001   0.00002   0.00004   0.00001  -0.00002
  56 6   H  1S          0.00002  -0.00002   0.00041  -0.00003  -0.00006
  57        2S         -0.00013  -0.00024  -0.00158   0.00011   0.00002
  58        3PX         0.00002   0.00000  -0.00002   0.00003   0.00001
  59        3PY         0.00000   0.00002   0.00004  -0.00000  -0.00001
  60        3PZ         0.00002  -0.00001   0.00008  -0.00001   0.00000
  61 7   C  1S         -0.00001   0.00002  -0.00002  -0.00001   0.00002
  62        2S         -0.00001   0.00008  -0.00014  -0.00005   0.00004
  63        2PX         0.00003  -0.00003   0.00001   0.00003  -0.00003
  64        2PY         0.00000   0.00001  -0.00000  -0.00000   0.00005
  65        2PZ        -0.00000   0.00002   0.00002  -0.00000  -0.00004
  66        3S         -0.00005  -0.00056   0.00150   0.00046  -0.00053
  67        3PX        -0.00047   0.00030   0.00011  -0.00103   0.00020
  68        3PY        -0.00005   0.00006  -0.00017  -0.00011   0.00001
  69        3PZ         0.00006  -0.00025   0.00094  -0.00027  -0.00002
  70        4XX         0.00000   0.00003   0.00001   0.00002   0.00003
  71        4YY        -0.00001   0.00005  -0.00003  -0.00002   0.00007
  72        4ZZ        -0.00002   0.00004   0.00004  -0.00002   0.00005
  73        4XY        -0.00000   0.00001   0.00001   0.00001  -0.00001
  74        4XZ         0.00000  -0.00001  -0.00001   0.00001   0.00000
  75        4YZ         0.00000  -0.00000  -0.00001   0.00001  -0.00001
  76 8   C  1S         -0.00000  -0.00000   0.00000  -0.00000  -0.00002
  77        2S         -0.00001  -0.00002  -0.00004  -0.00002  -0.00008
  78        2PX         0.00000  -0.00001  -0.00009  -0.00000   0.00001
  79        2PY         0.00000   0.00001   0.00005  -0.00000  -0.00005
  80        2PZ         0.00000   0.00000  -0.00002   0.00000   0.00001
  81        3S          0.00015   0.00025   0.00027   0.00036   0.00055
  82        3PX         0.00013  -0.00008   0.00109   0.00020  -0.00000
  83        3PY         0.00004   0.00002  -0.00039   0.00013   0.00022
  84        3PZ        -0.00012  -0.00015   0.00133  -0.00031  -0.00016
  85        4XX        -0.00001   0.00002   0.00010  -0.00001  -0.00004
  86        4YY        -0.00001   0.00001   0.00001  -0.00001  -0.00005
  87        4ZZ         0.00001  -0.00000  -0.00002   0.00001  -0.00006
  88        4XY         0.00000  -0.00000   0.00003   0.00000  -0.00000
  89        4XZ        -0.00000   0.00001  -0.00005  -0.00000   0.00001
  90        4YZ        -0.00000  -0.00000   0.00002  -0.00001  -0.00001
  91 9   C  1S         -0.00000   0.00000   0.00000  -0.00000   0.00002
  92        2S         -0.00001   0.00001   0.00002  -0.00002   0.00004
  93        2PX        -0.00000  -0.00000   0.00001   0.00000  -0.00005
  94        2PY        -0.00000   0.00001   0.00000   0.00000   0.00005
  95        2PZ         0.00000  -0.00000  -0.00000   0.00000   0.00002
  96        3S          0.00019  -0.00010  -0.00012   0.00030  -0.00035
  97        3PX        -0.00004   0.00006  -0.00034   0.00011   0.00003
  98        3PY        -0.00008   0.00003  -0.00006  -0.00007  -0.00011
  99        3PZ         0.00023  -0.00006  -0.00010   0.00026  -0.00010
 100        4XX        -0.00001   0.00001  -0.00001  -0.00001   0.00006
 101        4YY         0.00000   0.00000   0.00001  -0.00001   0.00007
 102        4ZZ         0.00001  -0.00001  -0.00001   0.00001   0.00003
 103        4XY         0.00000  -0.00000  -0.00000   0.00000  -0.00002
 104        4XZ        -0.00001   0.00001   0.00001  -0.00000  -0.00000
 105        4YZ        -0.00001   0.00001   0.00001  -0.00001   0.00002
 106 10  C  1S         -0.00000   0.00000   0.00001  -0.00000   0.00000
 107        2S          0.00000   0.00001   0.00007  -0.00000   0.00002
 108        2PX         0.00000   0.00001   0.00002   0.00001   0.00001
 109        2PY        -0.00000  -0.00000  -0.00002   0.00000  -0.00001
 110        2PZ         0.00000  -0.00000   0.00001   0.00000  -0.00000
 111        3S         -0.00010  -0.00007  -0.00092  -0.00020  -0.00020
 112        3PX         0.00004  -0.00001   0.00083   0.00003   0.00011
 113        3PY         0.00000  -0.00002   0.00035  -0.00002  -0.00005
 114        3PZ         0.00004   0.00012  -0.00030   0.00009   0.00014
 115        4XX         0.00000  -0.00001  -0.00004   0.00000  -0.00001
 116        4YY        -0.00000   0.00000   0.00002  -0.00001  -0.00000
 117        4ZZ        -0.00000  -0.00000   0.00000  -0.00000  -0.00001
 118        4XY        -0.00000  -0.00000  -0.00003   0.00000   0.00001
 119        4XZ        -0.00000  -0.00000  -0.00000   0.00000  -0.00000
 120        4YZ        -0.00000  -0.00000   0.00000  -0.00000   0.00000
 121 11  H  1S          0.00001   0.00000   0.00011   0.00001  -0.00001
 122        2S          0.00007   0.00000  -0.00096   0.00018   0.00002
 123        3PX         0.00000   0.00000  -0.00005   0.00001   0.00001
 124        3PY         0.00000   0.00000  -0.00005   0.00000  -0.00001
 125        3PZ        -0.00000   0.00000   0.00003  -0.00000  -0.00000
 126 12  N  1S         -0.00000   0.00000  -0.00000   0.00000  -0.00001
 127        2S          0.00000   0.00001  -0.00001   0.00001  -0.00001
 128        2PX         0.00000   0.00000   0.00001   0.00000   0.00001
 129        2PY        -0.00000  -0.00000  -0.00000  -0.00000  -0.00001
 130        2PZ         0.00000  -0.00000  -0.00000  -0.00000  -0.00000
 131        3S         -0.00005  -0.00007   0.00003  -0.00017   0.00006
 132        3PX        -0.00003   0.00003  -0.00023   0.00004  -0.00010
 133        3PY         0.00002   0.00001   0.00002   0.00002   0.00007
 134        3PZ        -0.00006   0.00000  -0.00013  -0.00004  -0.00002
 135        4XX         0.00000  -0.00000   0.00001   0.00001  -0.00001
 136        4YY        -0.00000   0.00000  -0.00001  -0.00000  -0.00002
 137        4ZZ        -0.00000   0.00000  -0.00001   0.00000  -0.00002
 138        4XY         0.00000  -0.00000   0.00000   0.00000  -0.00001
 139        4XZ         0.00000   0.00000  -0.00000   0.00000  -0.00001
 140        4YZ         0.00000   0.00000   0.00000  -0.00000   0.00000
 141 13  H  1S         -0.00000   0.00001  -0.00002   0.00001   0.00003
 142        2S          0.00013  -0.00002  -0.00002   0.00010   0.00000
 143        3PX         0.00000  -0.00001   0.00000   0.00000  -0.00001
 144        3PY         0.00000  -0.00000   0.00000   0.00000   0.00002
 145        3PZ         0.00000   0.00000   0.00000  -0.00000   0.00001
 146 14  C  1S          0.00000  -0.00000  -0.00000  -0.00000  -0.00000
 147        2S          0.00000  -0.00000  -0.00001  -0.00001  -0.00001
 148        2PX        -0.00000  -0.00000   0.00001   0.00000   0.00000
 149        2PY         0.00000  -0.00000   0.00000   0.00000  -0.00001
 150        2PZ        -0.00000   0.00000   0.00000  -0.00000   0.00000
 151        3S          0.00006   0.00010  -0.00016   0.00011   0.00015
 152        3PX        -0.00002  -0.00005  -0.00015  -0.00006  -0.00007
 153        3PY         0.00000  -0.00002   0.00005  -0.00001   0.00001
 154        3PZ        -0.00003   0.00002  -0.00042   0.00001  -0.00005
 155        4XX         0.00000  -0.00000   0.00000   0.00000  -0.00001
 156        4YY         0.00000  -0.00000  -0.00000  -0.00000  -0.00001
 157        4ZZ         0.00000  -0.00000   0.00001   0.00000   0.00001
 158        4XY         0.00000   0.00000   0.00000   0.00000   0.00000
 159        4XZ        -0.00000  -0.00000   0.00000  -0.00000  -0.00000
 160        4YZ        -0.00000  -0.00000  -0.00001  -0.00000   0.00000
 161 15  H  1S         -0.00000  -0.00001   0.00004  -0.00000  -0.00000
 162        2S         -0.00001  -0.00003   0.00009  -0.00001  -0.00005
 163        3PX        -0.00000   0.00000  -0.00003  -0.00000  -0.00000
 164        3PY        -0.00000  -0.00000  -0.00002   0.00000   0.00000
 165        3PZ        -0.00000  -0.00000   0.00000  -0.00000  -0.00000
 166 16  H  1S         -0.00000   0.00000   0.00003   0.00000   0.00000
 167        2S          0.00000   0.00001   0.00007   0.00002   0.00002
 168        3PX         0.00000   0.00000  -0.00000   0.00000  -0.00000
 169        3PY         0.00000   0.00000   0.00000   0.00000  -0.00000
 170        3PZ         0.00000  -0.00000   0.00001  -0.00000   0.00000
 171 17  P  1S         -0.00017   0.99625   0.00000   0.00000   0.00000
 172        2S         -0.00000   0.01417   0.00001   0.00001  -0.00002
 173        2PX        -0.00000   0.00003   0.00000  -0.00000  -0.00007
 174        2PY        -0.00001  -0.00004   0.00000  -0.00000  -0.00002
 175        2PZ        -0.00000   0.00000  -0.00001   0.00000   0.00002
 176        3S          0.00013  -0.02721   0.00009   0.00005  -0.00004
 177        3PX         0.00001  -0.00005  -0.00001   0.00001   0.00013
 178        3PY         0.00010   0.00019  -0.00004   0.00003  -0.00001
 179        3PZ         0.00004  -0.00001   0.00010   0.00000  -0.00003
 180        4S         -0.00018   0.00283   0.00013  -0.00038  -0.00213
 181        4PX         0.00017  -0.00010  -0.00015   0.00028  -0.00113
 182        4PY         0.00005  -0.00025   0.00002   0.00014  -0.00020
 183        4PZ         0.00005   0.00009   0.00026   0.00008   0.00105
 184        5XX        -0.00004   0.00943  -0.00001   0.00001   0.00031
 185        5YY        -0.00010   0.00940   0.00002  -0.00003   0.00005
 186        5ZZ        -0.00004   0.00947   0.00001  -0.00001  -0.00003
 187        5XY        -0.00004  -0.00001  -0.00002  -0.00001   0.00009
 188        5XZ         0.00000  -0.00001  -0.00001  -0.00001  -0.00010
 189        5YZ         0.00001   0.00002   0.00003   0.00001  -0.00002
 190 18  P  1S          0.99625   0.00018   0.00000   0.00001   0.00000
 191        2S          0.01418   0.00001   0.00003   0.00003  -0.00000
 192        2PX         0.00004   0.00001  -0.00001  -0.00003   0.00000
 193        2PY        -0.00001   0.00001   0.00001   0.00006  -0.00000
 194        2PZ         0.00002   0.00000   0.00001  -0.00003  -0.00001
 195        3S         -0.02718   0.00014   0.00016   0.00017   0.00001
 196        3PX        -0.00016  -0.00006   0.00014   0.00020  -0.00002
 197        3PY        -0.00003  -0.00004  -0.00003  -0.00007   0.00000
 198        3PZ        -0.00007  -0.00003  -0.00000   0.00011   0.00003
 199        4S          0.00283  -0.00032  -0.00040  -0.00308  -0.00003
 200        4PX         0.00019  -0.00003  -0.00021  -0.00099   0.00013
 201        4PY         0.00020  -0.00017  -0.00014   0.00165  -0.00016
 202        4PZ        -0.00002   0.00002  -0.00010  -0.00012  -0.00022
 203        5XX         0.00941  -0.00006   0.00004   0.00011  -0.00003
 204        5YY         0.00945  -0.00007   0.00004   0.00024  -0.00001
 205        5ZZ         0.00946  -0.00005  -0.00005   0.00004   0.00002
 206        5XY        -0.00001  -0.00005  -0.00001  -0.00003  -0.00001
 207        5XZ        -0.00003  -0.00000  -0.00001   0.00005   0.00004
 208        5YZ         0.00001  -0.00000  -0.00000  -0.00018   0.00002
 209 19  O  1S          0.00001   0.00001  -0.00000  -0.00000  -0.00002
 210        2S          0.00002  -0.00002   0.00002  -0.00000   0.00004
 211        2PX        -0.00000  -0.00004   0.00001   0.00001  -0.00003
 212        2PY        -0.00002   0.00004   0.00001  -0.00001  -0.00002
 213        2PZ        -0.00001   0.00015  -0.00004   0.00001  -0.00002
 214        3S         -0.00009   0.00046  -0.00005   0.00002  -0.00014
 215        3PX        -0.00001   0.00010  -0.00001  -0.00006   0.00019
 216        3PY         0.00003  -0.00007  -0.00013   0.00002   0.00006
 217        3PZ         0.00005  -0.00035   0.00023  -0.00004  -0.00008
 218        4XX         0.00003   0.00004   0.00001   0.00001   0.00001
 219        4YY         0.00003   0.00004   0.00002  -0.00000   0.00006
 220        4ZZ         0.00002  -0.00018  -0.00001   0.00001   0.00007
 221        4XY        -0.00001   0.00001   0.00001  -0.00000  -0.00003
 222        4XZ         0.00001   0.00005   0.00001   0.00001   0.00000
 223        4YZ        -0.00001  -0.00010  -0.00004   0.00000  -0.00000
 224 20  O  1S         -0.00000  -0.00002  -0.00000  -0.00009   0.99274
 225        2S         -0.00000  -0.00008  -0.00005   0.00001   0.02591
 226        2PX         0.00000   0.00005   0.00001  -0.00000  -0.00001
 227        2PY         0.00001   0.00002   0.00001   0.00001  -0.00036
 228        2PZ         0.00000  -0.00003   0.00000   0.00000   0.00087
 229        3S         -0.00002   0.00092   0.00021  -0.00007   0.01197
 230        3PX        -0.00001  -0.00030  -0.00007   0.00001  -0.00037
 231        3PY        -0.00002  -0.00011  -0.00005  -0.00002  -0.00014
 232        3PZ        -0.00001   0.00021  -0.00004  -0.00002  -0.00012
 233        4XX         0.00000  -0.00024  -0.00004   0.00001  -0.00812
 234        4YY        -0.00000  -0.00008  -0.00004   0.00001  -0.00809
 235        4ZZ        -0.00001  -0.00004  -0.00005   0.00001  -0.00808
 236        4XY         0.00001  -0.00008   0.00001   0.00000  -0.00002
 237        4XZ         0.00000   0.00009  -0.00000   0.00001   0.00006
 238        4YZ        -0.00000   0.00000  -0.00001   0.00000  -0.00001
 239 21  O  1S          0.00000   0.00001   0.00000  -0.00001  -0.00003
 240        2S          0.00001  -0.00006   0.00001  -0.00005  -0.00018
 241        2PX        -0.00000  -0.00010  -0.00000  -0.00001  -0.00001
 242        2PY        -0.00001   0.00005  -0.00000  -0.00001  -0.00000
 243        2PZ        -0.00001  -0.00014   0.00002  -0.00001   0.00004
 244        3S          0.00001   0.00059   0.00001   0.00026   0.00117
 245        3PX         0.00002   0.00024   0.00004   0.00004   0.00025
 246        3PY         0.00006  -0.00009   0.00000  -0.00001  -0.00007
 247        3PZ         0.00003   0.00033  -0.00006   0.00005  -0.00000
 248        4XX         0.00001  -0.00003   0.00002  -0.00003  -0.00019
 249        4YY        -0.00001   0.00001   0.00000  -0.00003  -0.00009
 250        4ZZ         0.00002  -0.00011  -0.00000  -0.00002  -0.00012
 251        4XY        -0.00001   0.00006   0.00000  -0.00001  -0.00003
 252        4XZ        -0.00000  -0.00012   0.00001  -0.00000   0.00000
 253        4YZ         0.00000   0.00008   0.00000   0.00000   0.00001
 254 22  O  1S          0.00001   0.00000  -0.00002  -0.00003  -0.00001
 255        2S         -0.00003   0.00002  -0.00007   0.00002  -0.00003
 256        2PX        -0.00011   0.00001  -0.00002   0.00001   0.00001
 257        2PY         0.00010   0.00001   0.00000   0.00001   0.00002
 258        2PZ         0.00009   0.00001  -0.00001  -0.00003   0.00000
 259        3S          0.00049  -0.00001   0.00030  -0.00002   0.00019
 260        3PX         0.00024  -0.00004   0.00012   0.00011  -0.00000
 261        3PY        -0.00025  -0.00005  -0.00002  -0.00022  -0.00008
 262        3PZ        -0.00020  -0.00003   0.00003   0.00009  -0.00000
 263        4XX        -0.00009   0.00000  -0.00003   0.00006  -0.00002
 264        4YY        -0.00000   0.00001  -0.00006   0.00002  -0.00002
 265        4ZZ        -0.00000   0.00002  -0.00005   0.00003  -0.00001
 266        4XY         0.00011  -0.00002  -0.00001  -0.00001  -0.00001
 267        4XZ         0.00010   0.00000   0.00001   0.00001   0.00000
 268        4YZ        -0.00007  -0.00000  -0.00001   0.00004  -0.00000
 269 23  O  1S         -0.00002  -0.00001  -0.00003   0.99271   0.00009
 270        2S         -0.00005  -0.00002  -0.00014   0.02578  -0.00001
 271        2PX         0.00001  -0.00001  -0.00000   0.00031  -0.00000
 272        2PY        -0.00005  -0.00001   0.00003   0.00071  -0.00001
 273        2PZ         0.00001   0.00000  -0.00004   0.00052  -0.00001
 274        3S          0.00080   0.00008   0.00080   0.01260   0.00001
 275        3PX        -0.00005   0.00003   0.00014   0.00004  -0.00000
 276        3PY         0.00035   0.00005   0.00003   0.00039   0.00006
 277        3PZ        -0.00008   0.00001   0.00025  -0.00039   0.00004
 278        4XX        -0.00004  -0.00002  -0.00007  -0.00816  -0.00000
 279        4YY        -0.00022  -0.00001  -0.00010  -0.00820  -0.00000
 280        4ZZ        -0.00005  -0.00002  -0.00009  -0.00811  -0.00001
 281        4XY         0.00002   0.00000   0.00001   0.00002   0.00000
 282        4XZ         0.00001   0.00000   0.00001   0.00002   0.00001
 283        4YZ         0.00010  -0.00000   0.00004   0.00001   0.00001
 284 24  O  1S          0.00001   0.00000   0.00000  -0.00003  -0.00000
 285        2S         -0.00003  -0.00001   0.00001  -0.00026   0.00005
 286        2PX        -0.00000   0.00001  -0.00000  -0.00002   0.00001
 287        2PY        -0.00002   0.00001   0.00000   0.00004  -0.00001
 288        2PZ        -0.00017   0.00001   0.00001   0.00001   0.00000
 289        3S          0.00045   0.00004  -0.00001   0.00153  -0.00027
 290        3PX        -0.00002  -0.00001   0.00001   0.00017  -0.00005
 291        3PY         0.00003   0.00000   0.00002  -0.00022   0.00003
 292        3PZ         0.00040  -0.00000   0.00000   0.00032  -0.00004
 293        4XX         0.00006   0.00001   0.00000  -0.00014   0.00004
 294        4YY         0.00005   0.00000   0.00001  -0.00021   0.00005
 295        4ZZ        -0.00018   0.00000   0.00001  -0.00016   0.00004
 296        4XY        -0.00000  -0.00001  -0.00001   0.00002  -0.00000
 297        4XZ        -0.00003  -0.00000  -0.00001   0.00001  -0.00000
 298        4YZ        -0.00006  -0.00000   0.00000   0.00001   0.00000
 299 25  H  1S          0.00000  -0.00010   0.00000   0.00001   0.00031
 300        2S         -0.00002  -0.00020   0.00004  -0.00005  -0.00099
 301        3PX         0.00000   0.00001  -0.00001   0.00000   0.00012
 302        3PY         0.00000  -0.00000   0.00001   0.00000  -0.00001
 303        3PZ        -0.00000   0.00000  -0.00001   0.00000   0.00011
 304 26  H  1S         -0.00007  -0.00002  -0.00005   0.00031  -0.00003
 305        2S         -0.00018   0.00000  -0.00076  -0.00103   0.00005
 306        3PX        -0.00001   0.00000  -0.00009   0.00006   0.00000
 307        3PY         0.00002   0.00000  -0.00013   0.00000   0.00000
 308        3PZ        -0.00001   0.00000   0.00004   0.00016  -0.00000
                           6         7         8         9        10
                           O         O         O         O         O
     Eigenvalues --   -19.13333 -19.12203 -19.10886 -19.10325 -14.34306
   1 1   C  1S          0.00001  -0.00000   0.00001  -0.00003   0.00000
   2        2S          0.00004  -0.00003   0.00007  -0.00014  -0.00000
   3        2PX         0.00005  -0.00008   0.00001   0.00002   0.00001
   4        2PY         0.00001  -0.00001   0.00001  -0.00006   0.00000
   5        2PZ        -0.00001  -0.00001  -0.00002   0.00000   0.00000
   6        3S         -0.00085   0.00072  -0.00047   0.00090  -0.00002
   7        3PX        -0.00045   0.00107  -0.00025   0.00012   0.00002
   8        3PY        -0.00017   0.00007  -0.00026   0.00045   0.00001
   9        3PZ        -0.00026   0.00010  -0.00019   0.00048  -0.00005
  10        4XX         0.00001   0.00003   0.00002  -0.00004   0.00002
  11        4YY         0.00001   0.00000   0.00001  -0.00008   0.00000
  12        4ZZ         0.00003  -0.00000  -0.00001  -0.00004  -0.00000
  13        4XY         0.00001   0.00002   0.00000  -0.00001   0.00000
  14        4XZ         0.00002   0.00002   0.00000  -0.00002   0.00001
  15        4YZ         0.00000   0.00000  -0.00002   0.00002   0.00000
  16 2   H  1S          0.00006   0.00004   0.00005  -0.00008   0.00000
  17        2S         -0.00008  -0.00012  -0.00014   0.00036  -0.00005
  18        3PX        -0.00001  -0.00003   0.00000  -0.00000  -0.00000
  19        3PY         0.00001  -0.00001   0.00001  -0.00002  -0.00000
  20        3PZ        -0.00003  -0.00000  -0.00001   0.00003  -0.00000
  21 3   H  1S         -0.00004   0.00006  -0.00001   0.00001   0.00000
  22        2S          0.00036  -0.00023  -0.00007   0.00018  -0.00000
  23        3PX        -0.00003  -0.00003   0.00001  -0.00000  -0.00000
  24        3PY         0.00002  -0.00001  -0.00000   0.00003  -0.00000
  25        3PZ        -0.00001  -0.00000   0.00001  -0.00002   0.00000
  26 4   C  1S         -0.00003  -0.00003  -0.00004  -0.00001   0.00000
  27        2S         -0.00019  -0.00016  -0.00023  -0.00005   0.00001
  28        2PX        -0.00001   0.00002  -0.00004   0.00004   0.00000
  29        2PY         0.00001  -0.00001  -0.00004   0.00000  -0.00000
  30        2PZ         0.00004  -0.00003  -0.00001   0.00006   0.00000
  31        3S          0.00109   0.00099   0.00159   0.00001  -0.00001
  32        3PX        -0.00022  -0.00053   0.00046  -0.00072  -0.00000
  33        3PY        -0.00046  -0.00004   0.00058   0.00046  -0.00002
  34        3PZ        -0.00045  -0.00010   0.00064  -0.00048  -0.00002
  35        4XX         0.00001   0.00002  -0.00006  -0.00001   0.00000
  36        4YY        -0.00002  -0.00002  -0.00002   0.00005   0.00000
  37        4ZZ        -0.00002  -0.00004  -0.00000  -0.00003   0.00000
  38        4XY         0.00002   0.00000  -0.00001   0.00000  -0.00000
  39        4XZ         0.00003   0.00000   0.00001   0.00001  -0.00000
  40        4YZ         0.00002   0.00000  -0.00003  -0.00001   0.00000
  41 5   O  1S          0.00000  -0.00002   0.00001  -0.00001   0.00000
  42        2S          0.00002  -0.00010   0.00002  -0.00002   0.00000
  43        2PX        -0.00003   0.00004  -0.00002   0.00001   0.00000
  44        2PY        -0.00000  -0.00001  -0.00002   0.00002  -0.00000
  45        2PZ        -0.00001   0.00001  -0.00005  -0.00001  -0.00000
  46        3S         -0.00006   0.00034  -0.00022   0.00031  -0.00000
  47        3PX         0.00014  -0.00016   0.00005   0.00000  -0.00001
  48        3PY         0.00006   0.00004   0.00009  -0.00010   0.00001
  49        3PZ         0.00007  -0.00006   0.00041  -0.00009   0.00000
  50        4XX         0.00001  -0.00003   0.00002  -0.00001   0.00000
  51        4YY         0.00004  -0.00009   0.00003  -0.00002   0.00000
  52        4ZZ         0.00001  -0.00007  -0.00006   0.00002   0.00000
  53        4XY         0.00001  -0.00001   0.00002   0.00000  -0.00000
  54        4XZ        -0.00001   0.00000   0.00000  -0.00001   0.00000
  55        4YZ        -0.00001  -0.00000   0.00003   0.00001   0.00000
  56 6   H  1S          0.00005  -0.00006  -0.00007   0.00004  -0.00000
  57        2S         -0.00013   0.00014  -0.00038  -0.00021  -0.00000
  58        3PX        -0.00001   0.00000   0.00001  -0.00001  -0.00000
  59        3PY         0.00001  -0.00002  -0.00012  -0.00000   0.00000
  60        3PZ         0.00000  -0.00000   0.00005   0.00001   0.00000
  61 7   C  1S         -0.00000   0.00000  -0.00000   0.00000   0.00000
  62        2S         -0.00002   0.00004  -0.00001   0.00001   0.00007
  63        2PX         0.00001   0.00000   0.00001  -0.00001  -0.00004
  64        2PY        -0.00002   0.00000  -0.00000  -0.00001  -0.00001
  65        2PZ         0.00000  -0.00002   0.00000   0.00000   0.00000
  66        3S          0.00024  -0.00059   0.00021  -0.00022  -0.00085
  67        3PX        -0.00060   0.00081  -0.00029   0.00051  -0.00034
  68        3PY         0.00002   0.00011   0.00006  -0.00001  -0.00015
  69        3PZ        -0.00009   0.00041  -0.00023  -0.00002   0.00033
  70        4XX         0.00002  -0.00004   0.00002  -0.00002  -0.00008
  71        4YY        -0.00000   0.00001  -0.00000   0.00000  -0.00001
  72        4ZZ         0.00000   0.00000  -0.00001   0.00001   0.00002
  73        4XY         0.00000  -0.00002  -0.00000   0.00001  -0.00003
  74        4XZ        -0.00000  -0.00001   0.00000  -0.00000   0.00004
  75        4YZ        -0.00000  -0.00000  -0.00001   0.00001  -0.00000
  76 8   C  1S         -0.00000   0.00000  -0.00001   0.00000  -0.00001
  77        2S         -0.00002   0.00002  -0.00003   0.00001  -0.00001
  78        2PX        -0.00000   0.00001   0.00001  -0.00001  -0.00001
  79        2PY        -0.00000  -0.00000  -0.00001  -0.00000  -0.00001
  80        2PZ        -0.00000   0.00000  -0.00001  -0.00000   0.00002
  81        3S          0.00027  -0.00046   0.00026  -0.00009   0.00014
  82        3PX         0.00012  -0.00020  -0.00007  -0.00006   0.00021
  83        3PY         0.00004  -0.00011   0.00005  -0.00001   0.00010
  84        3PZ        -0.00013   0.00022  -0.00012   0.00010  -0.00022
  85        4XX        -0.00000  -0.00001  -0.00001   0.00001  -0.00003
  86        4YY        -0.00001   0.00000  -0.00002   0.00001  -0.00001
  87        4ZZ         0.00001  -0.00000  -0.00000  -0.00001  -0.00002
  88        4XY         0.00000  -0.00000   0.00000  -0.00000   0.00000
  89        4XZ        -0.00001   0.00000  -0.00000   0.00001  -0.00001
  90        4YZ        -0.00000   0.00001  -0.00001   0.00000  -0.00000
  91 9   C  1S         -0.00000   0.00000   0.00000  -0.00000   0.00004
  92        2S         -0.00001   0.00000   0.00001   0.00000   0.00034
  93        2PX         0.00000  -0.00001   0.00000   0.00000   0.00018
  94        2PY         0.00000   0.00000   0.00001  -0.00001   0.00003
  95        2PZ        -0.00000   0.00000   0.00001  -0.00001  -0.00001
  96        3S          0.00012  -0.00008  -0.00015  -0.00009   0.00028
  97        3PX         0.00002  -0.00014   0.00003   0.00004  -0.00063
  98        3PY        -0.00008  -0.00001  -0.00003   0.00009  -0.00025
  99        3PZ         0.00016  -0.00015  -0.00002  -0.00009   0.00048
 100        4XX        -0.00001   0.00002  -0.00001   0.00001  -0.00026
 101        4YY        -0.00000   0.00001   0.00001  -0.00000  -0.00002
 102        4ZZ         0.00000  -0.00001   0.00001  -0.00001   0.00005
 103        4XY         0.00000   0.00000  -0.00000   0.00000  -0.00002
 104        4XZ         0.00000  -0.00001   0.00000  -0.00000  -0.00008
 105        4YZ        -0.00001   0.00000  -0.00000   0.00001  -0.00004
 106 10  C  1S         -0.00000  -0.00000   0.00000   0.00000   0.00000
 107        2S          0.00000  -0.00000  -0.00000   0.00001   0.00006
 108        2PX         0.00001  -0.00001  -0.00000  -0.00000  -0.00000
 109        2PY         0.00000   0.00000   0.00001  -0.00000  -0.00001
 110        2PZ         0.00000  -0.00000   0.00000  -0.00000   0.00005
 111        3S         -0.00014   0.00025  -0.00001   0.00001  -0.00075
 112        3PX         0.00004  -0.00008  -0.00001   0.00001  -0.00015
 113        3PY         0.00000   0.00001  -0.00003  -0.00001  -0.00012
 114        3PZ         0.00004  -0.00008   0.00001   0.00002   0.00031
 115        4XX        -0.00000   0.00001   0.00000  -0.00000   0.00002
 116        4YY        -0.00000   0.00000   0.00000   0.00000  -0.00002
 117        4ZZ        -0.00000   0.00000   0.00000  -0.00000  -0.00010
 118        4XY        -0.00000   0.00000   0.00000  -0.00000   0.00001
 119        4XZ        -0.00000   0.00000   0.00000  -0.00000   0.00001
 120        4YZ        -0.00000   0.00000   0.00000   0.00000   0.00003
 121 11  H  1S          0.00001  -0.00001  -0.00002   0.00001   0.00002
 122        2S          0.00003  -0.00009   0.00001  -0.00006   0.00012
 123        3PX        -0.00000   0.00000   0.00001  -0.00000   0.00000
 124        3PY        -0.00000   0.00000  -0.00000  -0.00000   0.00000
 125        3PZ         0.00000  -0.00000   0.00000  -0.00000  -0.00000
 126 12  N  1S         -0.00000  -0.00000  -0.00000   0.00000   0.99274
 127        2S         -0.00000  -0.00000  -0.00002   0.00002   0.03467
 128        2PX         0.00000  -0.00000   0.00000  -0.00000  -0.00084
 129        2PY        -0.00000  -0.00000   0.00000  -0.00000  -0.00046
 130        2PZ        -0.00000   0.00000  -0.00000   0.00000   0.00109
 131        3S         -0.00005   0.00014   0.00011  -0.00008   0.00370
 132        3PX        -0.00002  -0.00003  -0.00004   0.00005   0.00035
 133        3PY         0.00002  -0.00000  -0.00001  -0.00001   0.00021
 134        3PZ        -0.00004   0.00002   0.00003   0.00000  -0.00052
 135        4XX         0.00000  -0.00001  -0.00000   0.00000  -0.00798
 136        4YY        -0.00001   0.00000  -0.00001   0.00001  -0.00817
 137        4ZZ        -0.00000  -0.00000  -0.00001   0.00001  -0.00804
 138        4XY        -0.00000  -0.00000   0.00000   0.00000   0.00001
 139        4XZ         0.00000  -0.00000  -0.00000  -0.00000   0.00010
 140        4YZ        -0.00000   0.00000  -0.00000   0.00000  -0.00003
 141 13  H  1S          0.00000  -0.00001   0.00000  -0.00000  -0.00001
 142        2S          0.00008  -0.00007   0.00001  -0.00004  -0.00000
 143        3PX         0.00000   0.00000  -0.00000   0.00000  -0.00006
 144        3PY         0.00000   0.00000   0.00000  -0.00000   0.00000
 145        3PZ         0.00000   0.00000  -0.00000   0.00000  -0.00004
 146 14  C  1S         -0.00000   0.00000  -0.00000   0.00000   0.00004
 147        2S         -0.00000   0.00001  -0.00000   0.00000   0.00035
 148        2PX         0.00000  -0.00000   0.00000  -0.00000  -0.00004
 149        2PY         0.00000   0.00000   0.00000  -0.00000   0.00004
 150        2PZ         0.00000  -0.00000   0.00000  -0.00000  -0.00018
 151        3S          0.00007  -0.00009  -0.00001   0.00001   0.00019
 152        3PX        -0.00004   0.00008  -0.00000  -0.00001  -0.00028
 153        3PY        -0.00001   0.00001  -0.00001   0.00001  -0.00023
 154        3PZ        -0.00002   0.00000   0.00002   0.00000   0.00062
 155        4XX         0.00000  -0.00000   0.00000  -0.00000   0.00000
 156        4YY        -0.00000   0.00000  -0.00000   0.00000  -0.00002
 157        4ZZ         0.00000  -0.00000  -0.00000  -0.00000  -0.00019
 158        4XY         0.00000  -0.00000   0.00000  -0.00000   0.00005
 159        4XZ        -0.00000   0.00000  -0.00000  -0.00000  -0.00016
 160        4YZ        -0.00000   0.00000   0.00000  -0.00000   0.00003
 161 15  H  1S         -0.00000  -0.00000  -0.00000  -0.00000   0.00003
 162        2S         -0.00000   0.00001   0.00001  -0.00002  -0.00004
 163        3PX        -0.00000   0.00000  -0.00000   0.00000  -0.00001
 164        3PY        -0.00000   0.00000   0.00000  -0.00000   0.00000
 165        3PZ        -0.00000   0.00000   0.00000   0.00000  -0.00002
 166 16  H  1S          0.00000  -0.00000  -0.00000   0.00000  -0.00001
 167        2S          0.00001  -0.00003   0.00001  -0.00000  -0.00001
 168        3PX        -0.00000   0.00000  -0.00000   0.00000   0.00006
 169        3PY         0.00000   0.00000   0.00000  -0.00000  -0.00000
 170        3PZ         0.00000   0.00000  -0.00000   0.00000   0.00005
 171 17  P  1S         -0.00000  -0.00000   0.00002   0.00001  -0.00000
 172        2S         -0.00003  -0.00001  -0.00005  -0.00009  -0.00000
 173        2PX        -0.00001   0.00001   0.00001  -0.00000   0.00000
 174        2PY        -0.00001   0.00000  -0.00000   0.00000   0.00000
 175        2PZ        -0.00001  -0.00000  -0.00002   0.00001   0.00000
[...]
 214         V                 1.872262          2.997649
 215         V                 1.886188          3.161656
 216         V                 1.892818          3.125200
 217         V                 1.897753          3.231961
 218         V                 1.907910          3.213059
 219         V                 1.913107          3.197726
 220         V                 1.941267          3.163584
 221         V                 1.966907          3.139413
 222         V                 1.976799          3.321037
 223         V                 1.981997          3.250343
 224         V                 1.993338          3.500225
 225         V                 2.008557          3.435856
 226         V                 2.021904          3.412715
 227         V                 2.046313          3.419467
 228         V                 2.077046          3.380054
 229         V                 2.083792          3.363219
 230         V                 2.096170          3.432583
 231         V                 2.103413          3.406179
 232         V                 2.117697          3.382788
 233         V                 2.119986          3.281007
 234         V                 2.169266          3.444787
 235         V                 2.185407          3.493943
 236         V                 2.199521          3.552876
 237         V                 2.218267          3.528117
 238         V                 2.257215          3.512029
 239         V                 2.260604          3.530531
 240         V                 2.287404          3.517084
 241         V                 2.301159          3.512994
 242         V                 2.310635          3.577937
 243         V                 2.318620          3.592583
 244         V                 2.339953          3.731539
 245         V                 2.353794          3.650370
 246         V                 2.365902          3.748720
 247         V                 2.376198          3.735739
 248         V                 2.388651          3.373697
 249         V                 2.412476          3.806976
 250         V                 2.420952          3.812199
 251         V                 2.455879          3.935438
 252         V                 2.481238          4.010840
 253         V                 2.495451          3.689425
 254         V                 2.498219          4.370754
 255         V                 2.515107          4.346349
 256         V                 2.521448          3.865469
 257         V                 2.535934          3.837338
 258         V                 2.567647          3.708876
 259         V                 2.608803          3.946095
 260         V                 2.622531          3.809180
 261         V                 2.636811          3.849156
 262         V                 2.639798          3.681256
 263         V                 2.655160          3.835589
 264         V                 2.669948          3.869822
 265         V                 2.677024          3.846352
 266         V                 2.699319          3.933562
 267         V                 2.721533          3.859366
 268         V                 2.731455          4.066201
 269         V                 2.741658          4.187094
 270         V                 2.763722          4.338176
 271         V                 2.782731          4.444399
 272         V                 2.800807          4.505783
 273         V                 2.829900          4.763074
 274         V                 2.836537          4.728072
 275         V                 2.848367          4.235477
 276         V                 2.858637          4.325311
 277         V                 2.912029          4.303039
 278         V                 2.957991          4.652949
 279         V                 2.987462          4.509796
 280         V                 3.064884          4.629062
 281         V                 3.176665          5.079378
 282         V                 3.233421          4.896555
 283         V                 3.256996          4.984005
 284         V                 3.307284          5.105236
 285         V                 3.387381          5.564109
 286         V                 3.401310          6.202535
 287         V                 3.413325          6.098200
 288         V                 3.441888          5.346056
 289         V                 3.458958          6.249900
 290         V                 3.474610          6.317019
 291         V                 3.505149          9.020690
 292         V                 3.562463         10.142600
 293         V                 3.786917          6.881970
 294         V                 3.792651          9.281894
 295         V                 3.842842          9.686395
 296         V                 3.948465         10.312936
 297         V                 3.969185         10.286689
 298         V                 4.044025         10.476331
 299         V                 4.106037         10.327088
 300         V                 4.111072         10.353839
 301         V                 4.175618         10.461476
 302         V                 4.195047         10.266833
 303         V                 4.218163         10.364321
 304         V                 4.320777         10.106386
 305         V                 4.360958         10.305522
 306         V                 4.464620         10.187348
 307         V                 4.621396         10.522122
 308         V                 4.749636         10.130166
 Total kinetic energy from orbitals= 1.526024287742D+03
                          Isotropic Fermi Contact Couplings
        Atom                 a.u.       MegaHertz       Gauss      10(-4) cm-1
     1  C(13)             -0.00669      -7.51601      -2.68190      -2.50707
     2  H(1)               0.00090       4.03894       1.44120       1.34725
     3  H(1)               0.00551      24.61720       8.78403       8.21141
     4  C(13)             -0.00130      -1.46375      -0.52230      -0.48825
     5  O(17)              0.03399     -20.60375      -7.35193      -6.87267
     6  H(1)              -0.00216      -9.63678      -3.43864      -3.21448
     7  C(13)              0.00140       1.57734       0.56283       0.52614
     8  C(13)             -0.00115      -1.29517      -0.46215      -0.43202
     9  C(13)             -0.00109      -1.22768      -0.43807      -0.40951
    10  C(13)              0.00001       0.01310       0.00468       0.00437
    11  H(1)               0.00160       7.15348       2.55254       2.38614
    12  N(14)              0.00872       2.81859       1.00574       0.94018
    13  H(1)               0.00003       0.13159       0.04696       0.04390
    14  C(13)             -0.00071      -0.80155      -0.28601      -0.26737
    15  H(1)              -0.00004      -0.19431      -0.06934      -0.06482
    16  H(1)               0.00086       3.86376       1.37868       1.28881
    17  P(31)             -0.01561     -28.27619     -10.08965      -9.43192
    18  P(31)             -0.04607     -83.43488     -29.77164     -27.83088
    19  O(17)             -0.00007       0.04293       0.01532       0.01432
    20  O(17)              0.00134      -0.81369      -0.29035      -0.27142
    21  O(17)              0.00558      -3.38159      -1.20664      -1.12798
    22  O(17)              0.00883      -5.35224      -1.90981      -1.78531
    23  O(17)              0.00049      -0.29459      -0.10512      -0.09826
    24  O(17)              0.01746     -10.58465      -3.77687      -3.53066
    25  H(1)              -0.00045      -2.01600      -0.71936      -0.67247
    26  H(1)              -0.00071      -3.16376      -1.12891      -1.05532
 --------------------------------------------------------
       Center         ----  Spin Dipole Couplings  ----
                      3XX-RR        3YY-RR        3ZZ-RR
 --------------------------------------------------------
     1   Atom        0.016958     -0.015157     -0.001802
     2   Atom        0.002137     -0.005664      0.003528
     3   Atom       -0.000879      0.004636     -0.003758
     4   Atom        0.125352      0.036877     -0.162229
     5   Atom        0.636034     -0.223685     -0.412349
     6   Atom       -0.008476      0.017287     -0.008811
     7   Atom        0.026464     -0.013302     -0.013162
     8   Atom        0.006409     -0.005848     -0.000561
     9   Atom        0.006710     -0.002223     -0.004487
    10   Atom        0.001534      0.002751     -0.004285
    11   Atom        0.004271     -0.002563     -0.001708
    12   Atom        0.015947     -0.023563      0.007616
    13   Atom        0.001275     -0.001905      0.000630
    14   Atom        0.000552     -0.005853      0.005301
    15   Atom        0.000879     -0.000974      0.000095
    16   Atom        0.001265     -0.000915     -0.000350
    17   Atom       -0.022729      0.050182     -0.027453
    18   Atom        0.093697     -0.084736     -0.008961
    19   Atom       -0.037245      0.051473     -0.014229
    20   Atom        0.004909      0.041866     -0.046774
    21   Atom       -0.108854      0.201150     -0.092296
    22   Atom        0.210762     -0.030392     -0.180369
    23   Atom       -0.090964      0.141043     -0.050079
    24   Atom        0.621378     -0.236565     -0.384813
    25   Atom        0.002726     -0.001821     -0.000906
    26   Atom       -0.005725      0.005282      0.000443
 --------------------------------------------------------
                        XY            XZ            YZ
 --------------------------------------------------------
     1   Atom        0.004574     -0.022747     -0.002313
     2   Atom       -0.000223     -0.002093      0.001673
     3   Atom       -0.005031     -0.001170      0.004071
     4   Atom        0.252018      0.029387      0.026569
     5   Atom        0.449835     -0.014713     -0.001142
     6   Atom       -0.012115     -0.008240      0.024807
     7   Atom        0.002141     -0.010499     -0.000478
     8   Atom        0.001256     -0.001773     -0.002435
     9   Atom        0.009914     -0.006605     -0.005668
    10   Atom        0.005462     -0.001784     -0.002509
    11   Atom       -0.002827      0.001212     -0.001086
    12   Atom        0.010600     -0.040795     -0.007138
    13   Atom        0.000242     -0.001052     -0.000319
    14   Atom       -0.000513     -0.002557      0.001081
    15   Atom       -0.000167      0.001022     -0.000279
    16   Atom        0.000378      0.000730      0.000048
    17   Atom       -0.032171      0.007385     -0.007009
    18   Atom        0.007754      0.084443      0.024128
    19   Atom        0.086302      0.064817      0.100978
    20   Atom        0.086525     -0.035335     -0.045970
    21   Atom       -0.045636     -0.013651      0.093775
    22   Atom        0.377586     -0.233766     -0.177299
    23   Atom       -0.027981      0.013321     -0.104468
    24   Atom        0.402658      0.136037      0.047346
    25   Atom        0.003152      0.004258     -0.001700
    26   Atom        0.007410      0.005550     -0.000039
 --------------------------------------------------------


 ---------------------------------------------------------------------------------
              Anisotropic Spin Dipole Couplings in Principal Axis System
 ---------------------------------------------------------------------------------

       Atom             a.u.   MegaHertz   Gauss  10(-4) cm-1        Axes

              Baa    -0.0173    -2.317    -0.827    -0.773  0.5488 -0.3640  0.7526
     1 C(13)  Bbb    -0.0155    -2.074    -0.740    -0.692  0.1214  0.9254  0.3590
              Bcc     0.0327     4.391     1.567     1.465  0.8271  0.1057 -0.5520
 
              Baa    -0.0060    -3.181    -1.135    -1.061 -0.0189  0.9839 -0.1776
     2 H(1)   Bbb     0.0007     0.383     0.137     0.128  0.8281  0.1149  0.5487
              Bcc     0.0052     2.797     0.998     0.933 -0.5603  0.1367  0.8170
 
              Baa    -0.0057    -3.018    -1.077    -1.007 -0.2936 -0.4722  0.8312
     3 H(1)   Bbb    -0.0033    -1.756    -0.626    -0.586  0.8367  0.2936  0.4624
              Bcc     0.0089     4.774     1.704     1.592 -0.4623  0.8312  0.3089
 
              Baa    -0.1750   -23.480    -8.378    -7.832 -0.6272  0.7647 -0.1479
     4 C(13)  Bbb    -0.1651   -22.159    -7.907    -7.392 -0.1549  0.0636  0.9859
              Bcc     0.3401    45.639    16.285    15.224  0.7633  0.6413  0.0786
 
              Baa    -0.4193    30.341    10.827    10.121 -0.3287  0.7524 -0.5708
     5 O(17)  Bbb    -0.4092    29.611    10.566     9.877 -0.2159  0.5285  0.8210
              Bcc     0.8285   -59.952   -21.392   -19.998  0.9194  0.3931 -0.0113
 
              Baa    -0.0238   -12.723    -4.540    -4.244  0.0683 -0.5004  0.8631
     6 H(1)   Bbb    -0.0131    -7.007    -2.500    -2.337  0.9494  0.2983  0.0979
              Bcc     0.0370    19.730     7.040     6.581 -0.3065  0.8128  0.4955
 
              Baa    -0.0158    -2.117    -0.755    -0.706  0.2422 -0.0223  0.9700
     7 C(13)  Bbb    -0.0134    -1.800    -0.642    -0.600 -0.0446  0.9984  0.0341
              Bcc     0.0292     3.917     1.398     1.306  0.9692  0.0516 -0.2409
 
              Baa    -0.0068    -0.915    -0.327    -0.305 -0.0416  0.9351  0.3520
     8 C(13)  Bbb    -0.0003    -0.036    -0.013    -0.012  0.2992 -0.3244  0.8973
              Bcc     0.0071     0.952     0.340     0.317  0.9533  0.1426 -0.2663
 
              Baa    -0.0095    -1.269    -0.453    -0.423 -0.2537  0.7877  0.5613
     9 C(13)  Bbb    -0.0072    -0.965    -0.344    -0.322  0.5885 -0.3348  0.7359
              Bcc     0.0166     2.234     0.797     0.745  0.7677  0.5171 -0.3786
 
              Baa    -0.0051    -0.683    -0.244    -0.228  0.0121  0.2972  0.9548
    10 C(13)  Bbb    -0.0033    -0.441    -0.158    -0.147  0.7658 -0.6167  0.1823
              Bcc     0.0084     1.124     0.401     0.375  0.6430  0.7289 -0.2350
 
              Baa    -0.0038    -2.020    -0.721    -0.674  0.2713  0.9089  0.3166
    11 H(1)   Bbb    -0.0018    -0.969    -0.346    -0.323 -0.2937 -0.2351  0.9265
              Bcc     0.0056     2.989     1.067     0.997  0.9166 -0.3444  0.2031
 
              Baa    -0.0300    -1.155    -0.412    -0.385  0.6627 -0.3749  0.6483
    12 N(14)  Bbb    -0.0249    -0.959    -0.342    -0.320  0.1438  0.9133  0.3812
              Bcc     0.0548     2.115     0.755     0.705  0.7350  0.1594 -0.6591
 
              Baa    -0.0019    -1.040    -0.371    -0.347 -0.0396  0.9935  0.1067
    13 H(1)   Bbb    -0.0001    -0.075    -0.027    -0.025  0.6020 -0.0615  0.7961
              Bcc     0.0021     1.115     0.398     0.372  0.7975  0.0958 -0.5957
 
              Baa    -0.0060    -0.801    -0.286    -0.267  0.0448  0.9954 -0.0853
    14 C(13)  Bbb    -0.0006    -0.076    -0.027    -0.025  0.9161 -0.0069  0.4008
              Bcc     0.0065     0.877     0.313     0.292 -0.3983  0.0961  0.9122
 
              Baa    -0.0010    -0.559    -0.200    -0.187 -0.0772  0.9505  0.3009
    15 H(1)   Bbb    -0.0006    -0.303    -0.108    -0.101 -0.5747 -0.2891  0.7656
              Bcc     0.0016     0.862     0.308     0.288  0.8147 -0.1138  0.5686
 
              Baa    -0.0010    -0.529    -0.189    -0.177 -0.2177  0.9600  0.1763
    16 H(1)   Bbb    -0.0006    -0.325    -0.116    -0.108 -0.3102 -0.2393  0.9201
              Bcc     0.0016     0.854     0.305     0.285  0.9254  0.1456  0.3498
 
              Baa    -0.0371    -8.024    -2.863    -2.677  0.8498  0.2772 -0.4484
    17 P(31)  Bbb    -0.0262    -5.655    -2.018    -1.886  0.3886  0.2453  0.8882
              Bcc     0.0633    13.679     4.881     4.563 -0.3561  0.9290 -0.1008
 
              Baa    -0.0941   -20.341    -7.258    -6.785  0.1411  0.9069 -0.3970
    18 P(31)  Bbb    -0.0486   -10.512    -3.751    -3.506 -0.4812  0.4132  0.7731
              Bcc     0.1427    30.853    11.009    10.291  0.8652  0.0820  0.4947
 
              Baa    -0.0917     6.638     2.369     2.214  0.8391 -0.1340 -0.5272
    19 O(17)  Bbb    -0.0870     6.295     2.246     2.100 -0.3099  0.6787 -0.6658
              Bcc     0.1787   -12.933    -4.615    -4.314  0.4470  0.7221  0.5280
 
              Baa    -0.0668     4.833     1.725     1.612 -0.3355  0.5809  0.7416
    20 O(17)  Bbb    -0.0640     4.630     1.652     1.544  0.7295 -0.3380  0.5947
              Bcc     0.1308    -9.464    -3.377    -3.157  0.5961  0.7405 -0.3103
 
              Baa    -0.1197     8.663     3.091     2.890  0.0688 -0.2708  0.9602
    21 O(17)  Bbb    -0.1154     8.352     2.980     2.786  0.9882  0.1508 -0.0283
              Bcc     0.2352   -17.015    -6.072    -5.676 -0.1372  0.9507  0.2780
 
              Baa    -0.3077    22.262     7.944     7.426 -0.4855  0.8323  0.2677
    22 O(17)  Bbb    -0.2896    20.952     7.476     6.989  0.4420 -0.0306  0.8965
              Bcc     0.5972   -43.215   -15.420   -14.415  0.7543  0.5535 -0.3530
 
              Baa    -0.0965     6.982     2.491     2.329 -0.3912  0.3315  0.8585
    23 O(17)  Bbb    -0.0940     6.801     2.427     2.268  0.9138  0.2508  0.3196
              Bcc     0.1905   -13.782    -4.918    -4.597 -0.1094  0.9095 -0.4010
 
              Baa    -0.4059    29.372    10.481     9.798 -0.2855  0.4408  0.8510
    24 O(17)  Bbb    -0.3923    28.389    10.130     9.470 -0.2572  0.8201 -0.5111
              Bcc     0.7983   -57.761   -20.611   -19.267  0.9232  0.3648  0.1208
 
              Baa    -0.0062    -3.284    -1.172    -1.095 -0.5081  0.6086  0.6094
    25 H(1)   Bbb     0.0002     0.102     0.036     0.034  0.1367  0.7556 -0.6407
              Bcc     0.0060     3.182     1.135     1.061  0.8504  0.2423  0.4671
 
              Baa    -0.0116    -6.171    -2.202    -2.058  0.8423 -0.3714 -0.3905
    26 H(1)   Bbb     0.0018     0.962     0.343     0.321  0.2109 -0.4396  0.8731
              Bcc     0.0098     5.209     1.859     1.737  0.4960  0.8178  0.2920
 

 ---------------------------------------------------------------------------------


 Test job not archived.
 1\1\GINC-BATAGIN1\SP\UB3LYP\6-31G(d,p)\C7H9N1O7P2(1-,2)\ORISON\08-Feb-
 2021\0\\#t B3LYP/6-31G(d,p) scrf=(solvent=water) # Gfinput IOP(6/7=3) 
 Pop=hirshfeld Density Test # Units(Ang,Deg)\\ris-2dp-opt-g09.log\\-1,2
 \C,0,0.36357,-0.92033,-0.64314\H,0,0.18188,-0.70091,-1.69854\H,0,0.161
 93,-1.99148,-0.51695\C,0,-0.71427,-0.18219,0.18284\O,0,-0.52255,-0.496
 58,1.58853\H,0,-0.79082,0.3383,2.0337\C,0,1.823,-0.68354,-0.31968\C,0,
 2.38329,-0.95693,0.93585\C,0,2.70696,-0.24245,-1.31596\C,0,3.75097,-0.
 76539,1.13351\H,0,1.74694,-1.3028,1.74186\N,0,4.02364,-0.06201,-1.1501
 7\H,0,2.31724,-0.02155,-2.30926\C,0,4.52883,-0.32094,0.06592\H,0,4.208
 87,-0.96572,2.09722\H,0,5.5999,-0.16959,0.18799\P,0,-0.72368,1.69568,0
 .07096\P,0,-2.40219,-0.90065,-0.26298\O,0,-1.02378,2.12523,1.50421\O,0
 ,0.84517,2.12496,-0.28517\O,0,-1.52841,2.19631,-1.10112\O,0,-3.49157,-
 0.13186,0.45571\O,0,-2.1904,-2.37593,0.50202\O,0,-2.51862,-1.19182,-1.
 74392\H,0,1.43186,1.91223,0.45474\H,0,-1.74798,-2.16161,1.34264\\Versi
 on=EM64L-G16RevA.03\State=2-A\HF=-1536.4254803\S2=0.754546\S2-1=0.\S2A
 =0.750016\RMSD=5.130e-09\Dipole=5.5523414,-2.6605397,2.4404081\Quadrup
 ole=-11.8331999,-0.8068537,12.6400535,1.5872267,3.3914536,-2.6855596\P
 G=C01 [X(C7H9N1O7P2)]\\@


 IT WAS AN ACT OF DESPARATION. FOR SIX YEARS I HAD STRUGGLED WITH THE
 BLACKBODY THEORY. I KNEW THE PROBLEM WAS FUNDAMENTAL, AND I KNEW
 THE ANSWER. I HAD TO FIND A THEORETICAL EXPLANATION AT ANY COST,
 EXCEPT FOR THE INVIOLABLITY OF THE TWO LAWS OF THERMODYNAMICS.
   -- MAX PLANCK, 1931
 Job cpu time:       0 days  0 hours 38 minutes 39.7 seconds.
 Elapsed time:       0 days  0 hours  4 minutes 50.5 seconds.
 File lengths (MBytes):  RWF=    174 Int=      0 D2E=      0 Chk=      9 Scr=      1
 Normal termination of Gaussian 16 at Mon Feb  8 14:50:35 2021.
