 Entering Gaussian System, Link 0=g16
 Input=ris-2dp_neutral_scf_g09.com
 Output=ris-2dp_neutral_scf_g09.log
 Initial command:
 /opt/g16//g16/l1.exe "/home/orison/scrgauss/Gau-14513.inp" -scrdir="/home/orison/scrgauss/"
 Entering Link 1 = /opt/g16//g16/l1.exe PID=     14515.
  
 Copyright (c) 1988,1990,1992,1993,1995,1998,2003,2009,2016,
            Gaussian, Inc.  All Rights Reserved.
  
 This is part of the Gaussian(R) 16 program.  It is based on
 the Gaussian(R) 09 system (copyright 2009, Gaussian, Inc.),
 the Gaussian(R) 03 system (copyright 2003, Gaussian, Inc.),
 the Gaussian(R) 98 system (copyright 1998, Gaussian, Inc.),
 the Gaussian(R) 94 system (copyright 1995, Gaussian, Inc.),
 the Gaussian 92(TM) system (copyright 1992, Gaussian, Inc.),
 the Gaussian 90(TM) system (copyright 1990, Gaussian, Inc.),
 the Gaussian 88(TM) system (copyright 1988, Gaussian, Inc.),
 the Gaussian 86(TM) system (copyright 1986, Carnegie Mellon
 University), and the Gaussian 82(TM) system (copyright 1983,
 Carnegie Mellon University). Gaussian is a federally registered
 trademark of Gaussian, Inc.
  
 This software contains proprietary and confidential information,
 including trade secrets, belonging to Gaussian, Inc.
  
 This software is provided under written license and may be
 used, copied, transmitted, or stored only in accord with that
 written license.
  
 The following legend is applicable only to US Government
 contracts under FAR:
  
                    RESTRICTED RIGHTS LEGEND
  
 Use, reproduction and disclosure by the US Government is
 subject to restrictions as set forth in subparagraphs (a)
 and (c) of the Commercial Computer Software - Restricted
 Rights clause in FAR 52.227-19.
  
 Gaussian, Inc.
 340 Quinnipiac St., Bldg. 40, Wallingford CT 06492
  
  
 ---------------------------------------------------------------
 Warning -- This program may not be used in any manner that
 competes with the business of Gaussian, Inc. or will provide
 assistance to any competitor of Gaussian, Inc.  The licensee
 of this program is prohibited from giving any competitor of
 Gaussian, Inc. access to this program.  By using this program,
 the user acknowledges that Gaussian, Inc. is engaged in the
 business of creating and licensing software in the field of
 computational chemistry and represents and warrants to the
 licensee that it is not a competitor of Gaussian, Inc. and that
 it will not use this program in any manner prohibited above.
 ---------------------------------------------------------------
  

 Cite this work as:
 Gaussian 16, Revision A.03,
 M. J. Frisch, G. W. Trucks, H. B. Schlegel, G. E. Scuseria, 
 M. A. Robb, J. R. Cheeseman, G. Scalmani, V. Barone, 
 G. A. Petersson, H. Nakatsuji, X. Li, M. Caricato, A. V. Marenich, 
 J. Bloino, B. G. Janesko, R. Gomperts, B. Mennucci, H. P. Hratchian, 
 J. V. Ortiz, A. F. Izmaylov, J. L. Sonnenberg, D. Williams-Young, 
 F. Ding, F. Lipparini, F. Egidi, J. Goings, B. Peng, A. Petrone, 
 T. Henderson, D. Ranasinghe, V. G. Zakrzewski, J. Gao, N. Rega, 
 G. Zheng, W. Liang, M. Hada, M. Ehara, K. Toyota, R. Fukuda, 
 J. Hasegawa, M. Ishida, T. Nakajima, Y. Honda, O. Kitao, H. Nakai, 
 T. Vreven, K. Throssell, J. A. Montgomery, Jr., J. E. Peralta, 
 F. Ogliaro, M. J. Bearpark, J. J. Heyd, E. N. Brothers, K. N. Kudin, 
 V. N. Staroverov, T. A. Keith, R. Kobayashi, J. Normand, 
 K. Raghavachari, A. P. Rendell, J. C. Burant, S. S. Iyengar, 
 J. Tomasi, M. Cossi, J. M. Millam, M. Klene, C. Adamo, R. Cammi, 
 J. W. Ochterski, R. L. Martin, K. Morokuma, O. Farkas, 
 J. B. Foresman, and D. J. Fox, Gaussian, Inc., Wallingford CT, 2016.
 
 ******************************************
 Gaussian 16:  EM64L-G16RevA.03 25-Dec-2016
                 8-Feb-2021 
 ******************************************
 %nproc=8
 Will use up to    8 processors via shared memory.
 %Mem=4GB
 ----------------------------------------------------------------------
 #t B3LYP/6-31G(d,p) scrf=(solvent=water) # Gfinput IOP(6/7=3) Pop=hirs
 hfeld Density Test # Units(Ang,Deg)
 ----------------------------------------------------------------------
 -------------------
 ris-2dp-opt-g09.log
 -------------------
 Symbolic Z-matrix:
 Charge = -2 Multiplicity = 1
 C                     0.36357  -0.92033  -0.64314 
 H                     0.18188  -0.70091  -1.69854 
 H                     0.16193  -1.99148  -0.51695 
 C                    -0.71427  -0.18219   0.18284 
 O                    -0.52255  -0.49658   1.58853 
 H                    -0.79082   0.3383    2.0337 
 C                     1.823    -0.68354  -0.31968 
 C                     2.38329  -0.95693   0.93585 
 C                     2.70696  -0.24245  -1.31596 
 C                     3.75097  -0.76539   1.13351 
 H                     1.74694  -1.3028    1.74186 
 N                     4.02364  -0.06201  -1.15017 
 H                     2.31724  -0.02155  -2.30926 
 C                     4.52883  -0.32094   0.06592 
 H                     4.20887  -0.96572   2.09722 
 H                     5.5999   -0.16959   0.18799 
 P                    -0.72368   1.69568   0.07096 
 P                    -2.40219  -0.90065  -0.26298 
 O                    -1.02378   2.12523   1.50421 
 O                     0.84517   2.12496  -0.28517 
 O                    -1.52841   2.19631  -1.10112 
 O                    -3.49157  -0.13186   0.45571 
 O                    -2.1904   -2.37593   0.50202 
 O                    -2.51862  -1.19182  -1.74392 
 H                     1.43186   1.91223   0.45474 
 H                    -1.74798  -2.16161   1.34264 
 
                    Distance matrix (angstroms):
                    1          2          3          4          5
     1  C    0.000000
     2  H    1.093172   0.000000
     3  H    1.097244   1.749893   0.000000
     4  C    1.545585   2.147498   2.128606   0.000000
     5  O    2.438262   3.367908   2.671383   1.453121   0.000000
     6  H    3.175254   3.994461   3.583493   1.924176   0.983448
     7  C    1.513483   2.143556   2.123388   2.634695   3.029492
     8  C    2.563946   3.442639   2.848747   3.280568   3.013606
     9  C    2.530550   2.594722   3.189781   3.735619   4.350906
    10  C    3.828181   4.556651   4.136245   4.602419   4.306074
    11  H    2.783563   3.827275   2.844074   3.121516   2.413314
    12  N    3.793403   3.932941   4.363098   4.923327   5.325145
    13  H    2.720402   2.322557   3.426129   3.927648   4.845908
    14  C    4.267485   4.706769   4.711715   5.246239   5.278791
    15  H    4.722072   5.540268   4.925829   5.340045   4.781756
    16  H    5.354768   5.761618   5.778213   6.314185   6.289104
    17  P    2.921568   3.113649   3.837329   1.881223   2.673850
    18  P    2.791834   2.962794   2.798057   1.887860   2.669159
    19  O    3.976341   4.438276   4.736908   2.676939   2.670623
    20  O    3.103848   3.228484   4.179189   2.823797   3.500554
    21  O    3.674613   3.417000   4.553690   2.822878   3.936703
    22  O    4.085494   4.296376   4.213350   2.791126   3.198653
    23  O    3.154826   3.643607   2.592211   2.663331   2.737551
    24  O    3.097167   2.745132   3.054547   2.826205   3.946248
    25  H    3.220245   3.609372   4.218513   3.011046   3.302660
    26  H    3.153211   3.886744   2.671100   2.516306   2.081938
                    6          7          8          9         10
     6  H    0.000000
     7  C    3.662596   0.000000
     8  C    3.599704   1.401793   0.000000
     9  C    4.877700   1.403039   2.384511   0.000000
    10  C    4.759867   2.415684   1.395101   2.713545   0.000000
    11  H    3.036216   2.153884   1.083614   3.375832   2.162183
    12  N    5.785871   2.432864   2.800555   1.339288   2.405054
    13  H    5.352647   2.154282   3.377875   1.089644   3.802834
    14  C    5.710117   2.757115   2.400959   2.288004   1.393682
    15  H    5.167340   3.407845   2.163701   3.798506   1.085607
    16  H    6.671274   3.845367   3.394964   3.261330   2.160446
    17  P    2.387328   3.506974   4.175840   4.177222   5.216164
    18  P    3.066961   4.231144   4.933678   5.257890   6.311090
    19  O    1.878230   4.395443   4.629349   5.241916   5.593866
    20  O    3.353472   2.974057   3.654415   3.183303   4.337102
    21  O    3.717975   4.487330   5.421583   4.892041   6.452681
    22  O    3.163092   5.399096   5.951912   6.447699   7.301723
    23  O    3.416418   4.432466   4.808369   5.642776   6.188093
    24  O    4.426847   4.597442   5.591517   5.328334   6.911527
    25  H    3.148123   2.736921   3.060844   3.066579   3.606750
    26  H    2.764646   4.207125   4.322514   5.531530   5.677290
                   11         12         13         14         15
    11  H    0.000000
    12  N    3.884168   0.000000
    13  H    4.287006   2.063232   0.000000
    14  C    3.392895   1.342064   3.259179   0.000000
    15  H    2.510180   3.375877   4.887411   2.155063   0.000000
    16  H    4.306272   2.070469   4.127230   1.088577   2.492779
    17  P    4.229273   5.207464   4.226289   5.626335   5.959768
    18  P    4.625623   6.540773   5.218534   6.962993   7.020035
    19  O    4.414154   6.107880   5.505782   6.235696   6.106248
    20  O    4.083084   3.953952   3.297186   4.435656   5.151947
    21  O    5.572632   5.993970   4.600818   6.662483   7.290006
    22  O    5.519716   7.685188   6.434244   8.032092   7.917490
    23  O    4.265144   6.833612   5.810785   7.039973   6.744184
    24  O    5.509808   6.665596   5.007463   7.328063   7.750135
    25  H    3.477409   3.631898   3.487563   3.837897   4.323439
    26  H    3.620966   6.628274   5.868751   6.664565   6.122386
                   16         17         18         19         20
    16  H    0.000000
    17  P    6.593982   0.000000
    18  P    8.048060   3.109637   0.000000
    19  O    7.132445   1.526034   3.765491   0.000000
    20  O    5.300594   1.665053   4.438486   2.587442   0.000000
    21  O    7.620505   1.507313   3.325227   2.654703   2.510926
    22  O    9.095489   3.339034   1.514695   3.504825   4.944639
    23  O    8.102797   4.349148   1.675270   4.756661   5.485651
    24  O    8.407592   3.853992   1.513776   4.877265   4.944094
    25  H    4.666657   2.200121   4.809091   2.678978   0.967949
    26  H    7.700175   4.188681   2.143835   4.350582   5.267720
                   21         22         23         24         25
    21  O    0.000000
    22  O    3.420247   0.000000
    23  O    4.890160   2.594424   0.000000
    24  O    3.587915   2.628406   2.560096   0.000000
    25  H    3.356278   5.330897   5.613494   5.484116   0.000000
    26  H    5.001164   2.818978   0.973812   3.325843   5.243655
                   26
    26  H    0.000000
 Framework group  C1[X(C7H9NO7P2)]
 Deg. of freedom    72
                         Standard orientation:                         
 ---------------------------------------------------------------------
 Center     Atomic      Atomic             Coordinates (Angstroms)
 Number     Number       Type             X           Y           Z
 ---------------------------------------------------------------------
      1          6           0        0.363569   -0.920331   -0.643140
      2          1           0        0.181879   -0.700911   -1.698540
      3          1           0        0.161929   -1.991481   -0.516950
      4          6           0       -0.714271   -0.182191    0.182840
      5          8           0       -0.522551   -0.496581    1.588530
      6          1           0       -0.790820    0.338300    2.033700
      7          6           0        1.822999   -0.683541   -0.319680
      8          6           0        2.383289   -0.956932    0.935850
      9          6           0        2.706959   -0.242452   -1.315960
     10          6           0        3.750969   -0.765392    1.133510
     11          1           0        1.746939   -1.302801    1.741860
     12          7           0        4.023639   -0.062012   -1.150170
     13          1           0        2.317240   -0.021552   -2.309260
     14          6           0        4.528829   -0.320942    0.065920
     15          1           0        4.208869   -0.965722    2.097220
     16          1           0        5.599899   -0.169593    0.187990
     17         15           0       -0.723680    1.695679    0.070960
     18         15           0       -2.402191   -0.900650   -0.262980
     19          8           0       -1.023780    2.125230    1.504210
     20          8           0        0.845170    2.124959   -0.285170
     21          8           0       -1.528410    2.196310   -1.101120
     22          8           0       -3.491571   -0.131860    0.455710
     23          8           0       -2.190401   -2.375930    0.502020
     24          8           0       -2.518621   -1.191820   -1.743920
     25          1           0        1.431860    1.912229    0.454740
     26          1           0       -1.747981   -2.161610    1.342640
 ---------------------------------------------------------------------
 Rotational constants (GHZ):           0.6698934           0.2814083           0.2463883
 AO basis set in the form of general basis input (Overlap normalization):
      1 0
 S   6 1.00       0.000000000000
      0.3047524880D+04  0.1834737132D-02
      0.4573695180D+03  0.1403732281D-01
      0.1039486850D+03  0.6884262226D-01
      0.2921015530D+02  0.2321844432D+00
      0.9286662960D+01  0.4679413484D+00
      0.3163926960D+01  0.3623119853D+00
 SP   3 1.00       0.000000000000
      0.7868272350D+01 -0.1193324198D+00  0.6899906659D-01
      0.1881288540D+01 -0.1608541517D+00  0.3164239610D+00
      0.5442492580D+00  0.1143456438D+01  0.7443082909D+00
 SP   1 1.00       0.000000000000
      0.1687144782D+00  0.1000000000D+01  0.1000000000D+01
 D   1 1.00       0.000000000000
      0.8000000000D+00  0.1000000000D+01
 ****
      2 0
 S   3 1.00       0.000000000000
      0.1873113696D+02  0.3349460434D-01
      0.2825394365D+01  0.2347269535D+00
      0.6401216923D+00  0.8137573261D+00
 S   1 1.00       0.000000000000
      0.1612777588D+00  0.1000000000D+01
 P   1 1.00       0.000000000000
      0.1100000000D+01  0.1000000000D+01
 ****
      3 0
 S   3 1.00       0.000000000000
      0.1873113696D+02  0.3349460434D-01
      0.2825394365D+01  0.2347269535D+00
      0.6401216923D+00  0.8137573261D+00
 S   1 1.00       0.000000000000
      0.1612777588D+00  0.1000000000D+01
 P   1 1.00       0.000000000000
      0.1100000000D+01  0.1000000000D+01
 ****
      4 0
 S   6 1.00       0.000000000000
      0.3047524880D+04  0.1834737132D-02
      0.4573695180D+03  0.1403732281D-01
      0.1039486850D+03  0.6884262226D-01
      0.2921015530D+02  0.2321844432D+00
      0.9286662960D+01  0.4679413484D+00
      0.3163926960D+01  0.3623119853D+00
 SP   3 1.00       0.000000000000
      0.7868272350D+01 -0.1193324198D+00  0.6899906659D-01
      0.1881288540D+01 -0.1608541517D+00  0.3164239610D+00
      0.5442492580D+00  0.1143456438D+01  0.7443082909D+00
 SP   1 1.00       0.000000000000
      0.1687144782D+00  0.1000000000D+01  0.1000000000D+01
 D   1 1.00       0.000000000000
      0.8000000000D+00  0.1000000000D+01
 ****
      5 0
 S   6 1.00       0.000000000000
      0.5484671660D+04  0.1831074430D-02
      0.8252349460D+03  0.1395017220D-01
      0.1880469580D+03  0.6844507810D-01
      0.5296450000D+02  0.2327143360D+00
      0.1689757040D+02  0.4701928980D+00
      0.5799635340D+01  0.3585208530D+00
 SP   3 1.00       0.000000000000
      0.1553961625D+02 -0.1107775495D+00  0.7087426823D-01
      0.3599933586D+01 -0.1480262627D+00  0.3397528391D+00
      0.1013761750D+01  0.1130767015D+01  0.7271585773D+00
 SP   1 1.00       0.000000000000
      0.2700058226D+00  0.1000000000D+01  0.1000000000D+01
 D   1 1.00       0.000000000000
      0.8000000000D+00  0.1000000000D+01
 ****
      6 0
 S   3 1.00       0.000000000000
      0.1873113696D+02  0.3349460434D-01
      0.2825394365D+01  0.2347269535D+00
      0.6401216923D+00  0.8137573261D+00
 S   1 1.00       0.000000000000
      0.1612777588D+00  0.1000000000D+01
 P   1 1.00       0.000000000000
      0.1100000000D+01  0.1000000000D+01
 ****
      7 0
 S   6 1.00       0.000000000000
      0.3047524880D+04  0.1834737132D-02
      0.4573695180D+03  0.1403732281D-01
      0.1039486850D+03  0.6884262226D-01
      0.2921015530D+02  0.2321844432D+00
      0.9286662960D+01  0.4679413484D+00
      0.3163926960D+01  0.3623119853D+00
 SP   3 1.00       0.000000000000
      0.7868272350D+01 -0.1193324198D+00  0.6899906659D-01
      0.1881288540D+01 -0.1608541517D+00  0.3164239610D+00
      0.5442492580D+00  0.1143456438D+01  0.7443082909D+00
 SP   1 1.00       0.000000000000
      0.1687144782D+00  0.1000000000D+01  0.1000000000D+01
 D   1 1.00       0.000000000000
      0.8000000000D+00  0.1000000000D+01
 ****
      8 0
 S   6 1.00       0.000000000000
      0.3047524880D+04  0.1834737132D-02
      0.4573695180D+03  0.1403732281D-01
      0.1039486850D+03  0.6884262226D-01
      0.2921015530D+02  0.2321844432D+00
      0.9286662960D+01  0.4679413484D+00
      0.3163926960D+01  0.3623119853D+00
 SP   3 1.00       0.000000000000
      0.7868272350D+01 -0.1193324198D+00  0.6899906659D-01
      0.1881288540D+01 -0.1608541517D+00  0.3164239610D+00
      0.5442492580D+00  0.1143456438D+01  0.7443082909D+00
 SP   1 1.00       0.000000000000
      0.1687144782D+00  0.1000000000D+01  0.1000000000D+01
 D   1 1.00       0.000000000000
      0.8000000000D+00  0.1000000000D+01
 ****
      9 0
 S   6 1.00       0.000000000000
      0.3047524880D+04  0.1834737132D-02
      0.4573695180D+03  0.1403732281D-01
      0.1039486850D+03  0.6884262226D-01
      0.2921015530D+02  0.2321844432D+00
      0.9286662960D+01  0.4679413484D+00
      0.3163926960D+01  0.3623119853D+00
 SP   3 1.00       0.000000000000
      0.7868272350D+01 -0.1193324198D+00  0.6899906659D-01
      0.1881288540D+01 -0.1608541517D+00  0.3164239610D+00
      0.5442492580D+00  0.1143456438D+01  0.7443082909D+00
 SP   1 1.00       0.000000000000
      0.1687144782D+00  0.1000000000D+01  0.1000000000D+01
 D   1 1.00       0.000000000000
      0.8000000000D+00  0.1000000000D+01
 ****
     10 0
 S   6 1.00       0.000000000000
      0.3047524880D+04  0.1834737132D-02
      0.4573695180D+03  0.1403732281D-01
      0.1039486850D+03  0.6884262226D-01
      0.2921015530D+02  0.2321844432D+00
      0.9286662960D+01  0.4679413484D+00
      0.3163926960D+01  0.3623119853D+00
 SP   3 1.00       0.000000000000
      0.7868272350D+01 -0.1193324198D+00  0.6899906659D-01
      0.1881288540D+01 -0.1608541517D+00  0.3164239610D+00
      0.5442492580D+00  0.1143456438D+01  0.7443082909D+00
 SP   1 1.00       0.000000000000
      0.1687144782D+00  0.1000000000D+01  0.1000000000D+01
 D   1 1.00       0.000000000000
      0.8000000000D+00  0.1000000000D+01
 ****
     11 0
 S   3 1.00       0.000000000000
      0.1873113696D+02  0.3349460434D-01
      0.2825394365D+01  0.2347269535D+00
      0.6401216923D+00  0.8137573261D+00
 S   1 1.00       0.000000000000
      0.1612777588D+00  0.1000000000D+01
 P   1 1.00       0.000000000000
      0.1100000000D+01  0.1000000000D+01
 ****
     12 0
 S   6 1.00       0.000000000000
      0.4173511460D+04  0.1834772160D-02
      0.6274579110D+03  0.1399462700D-01
      0.1429020930D+03  0.6858655181D-01
      0.4023432930D+02  0.2322408730D+00
      0.1282021290D+02  0.4690699481D+00
      0.4390437010D+01  0.3604551991D+00
 SP   3 1.00       0.000000000000
      0.1162636186D+02 -0.1149611817D+00  0.6757974388D-01
      0.2716279807D+01 -0.1691174786D+00  0.3239072959D+00
      0.7722183966D+00  0.1145851947D+01  0.7408951398D+00
 SP   1 1.00       0.000000000000
      0.2120314975D+00  0.1000000000D+01  0.1000000000D+01
 D   1 1.00       0.000000000000
      0.8000000000D+00  0.1000000000D+01
 ****
     13 0
 S   3 1.00       0.000000000000
      0.1873113696D+02  0.3349460434D-01
      0.2825394365D+01  0.2347269535D+00
      0.6401216923D+00  0.8137573261D+00
 S   1 1.00       0.000000000000
      0.1612777588D+00  0.1000000000D+01
 P   1 1.00       0.000000000000
      0.1100000000D+01  0.1000000000D+01
 ****
     14 0
 S   6 1.00       0.000000000000
      0.3047524880D+04  0.1834737132D-02
      0.4573695180D+03  0.1403732281D-01
      0.1039486850D+03  0.6884262226D-01
      0.2921015530D+02  0.2321844432D+00
      0.9286662960D+01  0.4679413484D+00
      0.3163926960D+01  0.3623119853D+00
 SP   3 1.00       0.000000000000
      0.7868272350D+01 -0.1193324198D+00  0.6899906659D-01
      0.1881288540D+01 -0.1608541517D+00  0.3164239610D+00
      0.5442492580D+00  0.1143456438D+01  0.7443082909D+00
 SP   1 1.00       0.000000000000
      0.1687144782D+00  0.1000000000D+01  0.1000000000D+01
 D   1 1.00       0.000000000000
      0.8000000000D+00  0.1000000000D+01
 ****
     15 0
 S   3 1.00       0.000000000000
      0.1873113696D+02  0.3349460434D-01
      0.2825394365D+01  0.2347269535D+00
      0.6401216923D+00  0.8137573261D+00
 S   1 1.00       0.000000000000
      0.1612777588D+00  0.1000000000D+01
 P   1 1.00       0.000000000000
      0.1100000000D+01  0.1000000000D+01
 ****
     16 0
 S   3 1.00       0.000000000000
      0.1873113696D+02  0.3349460434D-01
      0.2825394365D+01  0.2347269535D+00
      0.6401216923D+00  0.8137573261D+00
 S   1 1.00       0.000000000000
      0.1612777588D+00  0.1000000000D+01
 P   1 1.00       0.000000000000
      0.1100000000D+01  0.1000000000D+01
 ****
     17 0
 S   6 1.00       0.000000000000
      0.1941330000D+05  0.1851598923D-02
      0.2909420000D+04  0.1420619174D-01
      0.6613640000D+03  0.6999945928D-01
      0.1857590000D+03  0.2400788603D+00
      0.5919430000D+02  0.4847617180D+00
      0.2003100000D+02  0.3351998050D+00
 SP   6 1.00       0.000000000000
      0.3394780000D+03 -0.2782170105D-02  0.4564616191D-02
      0.8101010000D+02 -0.3604990135D-01  0.3369357188D-01
      0.2587800000D+02 -0.1166310044D+00  0.1397548834D+00
      0.9452210000D+01  0.9683280364D-01  0.3393617168D+00
      0.3665660000D+01  0.6144180231D+00  0.4509206237D+00
      0.1467460000D+01  0.4037980152D+00  0.2385858009D+00
 SP   3 1.00       0.000000000000
      0.2156230000D+01 -0.2529241139D+00 -0.1776531273D-01
      0.7489970000D+00  0.3285184468D-01  0.2740581964D+00
      0.2831450000D+00  0.1081254762D+01  0.7854215630D+00
 SP   1 1.00       0.000000000000
      0.9983170000D-01  0.1000000000D+01  0.1000000000D+01
 D   1 1.00       0.000000000000
      0.5500000000D+00  0.1000000000D+01
 ****
     18 0
 S   6 1.00       0.000000000000
      0.1941330000D+05  0.1851598923D-02
      0.2909420000D+04  0.1420619174D-01
      0.6613640000D+03  0.6999945928D-01
      0.1857590000D+03  0.2400788603D+00
      0.5919430000D+02  0.4847617180D+00
      0.2003100000D+02  0.3351998050D+00
 SP   6 1.00       0.000000000000
      0.3394780000D+03 -0.2782170105D-02  0.4564616191D-02
      0.8101010000D+02 -0.3604990135D-01  0.3369357188D-01
      0.2587800000D+02 -0.1166310044D+00  0.1397548834D+00
      0.9452210000D+01  0.9683280364D-01  0.3393617168D+00
      0.3665660000D+01  0.6144180231D+00  0.4509206237D+00
      0.1467460000D+01  0.4037980152D+00  0.2385858009D+00
 SP   3 1.00       0.000000000000
      0.2156230000D+01 -0.2529241139D+00 -0.1776531273D-01
      0.7489970000D+00  0.3285184468D-01  0.2740581964D+00
      0.2831450000D+00  0.1081254762D+01  0.7854215630D+00
 SP   1 1.00       0.000000000000
      0.9983170000D-01  0.1000000000D+01  0.1000000000D+01
 D   1 1.00       0.000000000000
      0.5500000000D+00  0.1000000000D+01
 ****
     19 0
 S   6 1.00       0.000000000000
      0.5484671660D+04  0.1831074430D-02
      0.8252349460D+03  0.1395017220D-01
      0.1880469580D+03  0.6844507810D-01
      0.5296450000D+02  0.2327143360D+00
      0.1689757040D+02  0.4701928980D+00
      0.5799635340D+01  0.3585208530D+00
 SP   3 1.00       0.000000000000
      0.1553961625D+02 -0.1107775495D+00  0.7087426823D-01
      0.3599933586D+01 -0.1480262627D+00  0.3397528391D+00
      0.1013761750D+01  0.1130767015D+01  0.7271585773D+00
 SP   1 1.00       0.000000000000
      0.2700058226D+00  0.1000000000D+01  0.1000000000D+01
 D   1 1.00       0.000000000000
      0.8000000000D+00  0.1000000000D+01
 ****
     20 0
 S   6 1.00       0.000000000000
      0.5484671660D+04  0.1831074430D-02
      0.8252349460D+03  0.1395017220D-01
      0.1880469580D+03  0.6844507810D-01
      0.5296450000D+02  0.2327143360D+00
      0.1689757040D+02  0.4701928980D+00
      0.5799635340D+01  0.3585208530D+00
 SP   3 1.00       0.000000000000
      0.1553961625D+02 -0.1107775495D+00  0.7087426823D-01
      0.3599933586D+01 -0.1480262627D+00  0.3397528391D+00
      0.1013761750D+01  0.1130767015D+01  0.7271585773D+00
 SP   1 1.00       0.000000000000
      0.2700058226D+00  0.1000000000D+01  0.1000000000D+01
 D   1 1.00       0.000000000000
      0.8000000000D+00  0.1000000000D+01
 ****
     21 0
 S   6 1.00       0.000000000000
      0.5484671660D+04  0.1831074430D-02
      0.8252349460D+03  0.1395017220D-01
      0.1880469580D+03  0.6844507810D-01
      0.5296450000D+02  0.2327143360D+00
      0.1689757040D+02  0.4701928980D+00
      0.5799635340D+01  0.3585208530D+00
 SP   3 1.00       0.000000000000
      0.1553961625D+02 -0.1107775495D+00  0.7087426823D-01
      0.3599933586D+01 -0.1480262627D+00  0.3397528391D+00
      0.1013761750D+01  0.1130767015D+01  0.7271585773D+00
 SP   1 1.00       0.000000000000
      0.2700058226D+00  0.1000000000D+01  0.1000000000D+01
 D   1 1.00       0.000000000000
      0.8000000000D+00  0.1000000000D+01
 ****
     22 0
 S   6 1.00       0.000000000000
      0.5484671660D+04  0.1831074430D-02
      0.8252349460D+03  0.1395017220D-01
      0.1880469580D+03  0.6844507810D-01
      0.5296450000D+02  0.2327143360D+00
      0.1689757040D+02  0.4701928980D+00
      0.5799635340D+01  0.3585208530D+00
 SP   3 1.00       0.000000000000
      0.1553961625D+02 -0.1107775495D+00  0.7087426823D-01
      0.3599933586D+01 -0.1480262627D+00  0.3397528391D+00
      0.1013761750D+01  0.1130767015D+01  0.7271585773D+00
 SP   1 1.00       0.000000000000
      0.2700058226D+00  0.1000000000D+01  0.1000000000D+01
 D   1 1.00       0.000000000000
      0.8000000000D+00  0.1000000000D+01
 ****
     23 0
 S   6 1.00       0.000000000000
      0.5484671660D+04  0.1831074430D-02
      0.8252349460D+03  0.1395017220D-01
      0.1880469580D+03  0.6844507810D-01
      0.5296450000D+02  0.2327143360D+00
      0.1689757040D+02  0.4701928980D+00
      0.5799635340D+01  0.3585208530D+00
 SP   3 1.00       0.000000000000
      0.1553961625D+02 -0.1107775495D+00  0.7087426823D-01
      0.3599933586D+01 -0.1480262627D+00  0.3397528391D+00
      0.1013761750D+01  0.1130767015D+01  0.7271585773D+00
 SP   1 1.00       0.000000000000
      0.2700058226D+00  0.1000000000D+01  0.1000000000D+01
 D   1 1.00       0.000000000000
      0.8000000000D+00  0.1000000000D+01
 ****
     24 0
 S   6 1.00       0.000000000000
      0.5484671660D+04  0.1831074430D-02
      0.8252349460D+03  0.1395017220D-01
      0.1880469580D+03  0.6844507810D-01
      0.5296450000D+02  0.2327143360D+00
      0.1689757040D+02  0.4701928980D+00
      0.5799635340D+01  0.3585208530D+00
 SP   3 1.00       0.000000000000
      0.1553961625D+02 -0.1107775495D+00  0.7087426823D-01
      0.3599933586D+01 -0.1480262627D+00  0.3397528391D+00
      0.1013761750D+01  0.1130767015D+01  0.7271585773D+00
 SP   1 1.00       0.000000000000
      0.2700058226D+00  0.1000000000D+01  0.1000000000D+01
 D   1 1.00       0.000000000000
      0.8000000000D+00  0.1000000000D+01
 ****
     25 0
 S   3 1.00       0.000000000000
      0.1873113696D+02  0.3349460434D-01
      0.2825394365D+01  0.2347269535D+00
      0.6401216923D+00  0.8137573261D+00
 S   1 1.00       0.000000000000
      0.1612777588D+00  0.1000000000D+01
 P   1 1.00       0.000000000000
      0.1100000000D+01  0.1000000000D+01
 ****
     26 0
 S   3 1.00       0.000000000000
      0.1873113696D+02  0.3349460434D-01
      0.2825394365D+01  0.2347269535D+00
      0.6401216923D+00  0.8137573261D+00
 S   1 1.00       0.000000000000
      0.1612777588D+00  0.1000000000D+01
 P   1 1.00       0.000000000000
      0.1100000000D+01  0.1000000000D+01
 ****

   308 basis functions,   587 primitive gaussians,   308 cartesian basis functions
    73 alpha electrons       73 beta electrons
       nuclear repulsion energy      1632.0776432005 Hartrees.
 NAtoms=   26 NActive=   26 NUniq=   26 SFac= 1.00D+00 NAtFMM=   60 NAOKFM=F Big=F
 ------------------------------------------------------------------------------
 Polarizable Continuum Model (PCM)
 =================================
 Model                : PCM.
 Atomic radii         : UFF (Universal Force Field).
 Polarization charges : Total charges.
 Charge compensation  : None.
 Solution method      : On-the-fly selection.
 Cavity type          : Scaled VdW (van der Waals Surface) (Alpha=1.100).
 Cavity algorithm     : GePol (No added spheres)
                        Default sphere list used, NSphG=   26.
                        Lebedev-Laikov grids with approx.  5.0 points / Ang**2.
                        Smoothing algorithm: York/Karplus (Gamma=1.0000).
                        Polarization charges: spherical gaussians, with
                                              point-specific exponents (IZeta= 3).
                        Self-potential: point-specific (ISelfS= 7).
                        Self-field    : sphere-specific E.n sum rule (ISelfD= 2).
 Solvent              : Water, Eps=  78.355300 Eps(inf)=   1.777849
 ------------------------------------------------------------------------------
 ExpMin= 9.98D-02 ExpMax= 1.94D+04 ExpMxC= 2.91D+03 IAcc=3 IRadAn=         5 AccDes= 0.00D+00
 Harris functional with IExCor=  402 and IRadAn=       5 diagonalized for initial guess.
 HarFok:  IExCor=  402 AccDes= 0.00D+00 IRadAn=         5 IDoV= 1 UseB2=F ITyADJ=14
 ICtDFT=  3500011 ScaDFX=  1.000000  1.000000  1.000000  1.000000
 FoFCou: FMM=F IPFlag=           0 FMFlag=      100000 FMFlg1=           0
         NFxFlg=           0 DoJE=T BraDBF=F KetDBF=T FulRan=T
         wScrn=  0.000000 ICntrl=       500 IOpCl=  0 I1Cent=   200000004 NGrid=           0
         NMat0=    1 NMatS0=      1 NMatT0=    0 NMatD0=    1 NMtDS0=    0 NMtDT0=    0
 Petite list used in FoFCou.
 Inv3:  Mode=1 IEnd=    14692107.
 Iteration    1 A*A^-1 deviation from unit magnitude is 9.55D-15 for    273.
 Iteration    1 A*A^-1 deviation from orthogonality  is 4.65D-15 for   2036   1894.
 Iteration    1 A^-1*A deviation from unit magnitude is 9.33D-15 for    273.
 Iteration    1 A^-1*A deviation from orthogonality  is 7.30D-14 for   1091   1064.
 Error on total polarization charges =  0.00834
 SCF Done:  E(RB3LYP) =  -1536.63933959     A.U. after   13 cycles
            NFock= 13  Conv=0.48D-08     -V/T= 2.0067

 **********************************************************************

            Population analysis using the SCF density.

 **********************************************************************

 Orbital symmetries:
       Occupied  (A) (A) (A) (A) (A) (A) (A) (A) (A) (A) (A) (A)
                 (A) (A) (A) (A) (A) (A) (A) (A) (A) (A) (A) (A)
                 (A) (A) (A) (A) (A) (A) (A) (A) (A) (A) (A) (A)
                 (A) (A) (A) (A) (A) (A) (A) (A) (A) (A) (A) (A)
                 (A) (A) (A) (A) (A) (A) (A) (A) (A) (A) (A) (A)
                 (A) (A) (A) (A) (A) (A) (A) (A) (A) (A) (A) (A)
                 (A)
       Virtual   (A) (A) (A) (A) (A) (A) (A) (A) (A) (A) (A) (A)
                 (A) (A) (A) (A) (A) (A) (A) (A) (A) (A) (A) (A)
                 (A) (A) (A) (A) (A) (A) (A) (A) (A) (A) (A) (A)
                 (A) (A) (A) (A) (A) (A) (A) (A) (A) (A) (A) (A)
                 (A) (A) (A) (A) (A) (A) (A) (A) (A) (A) (A) (A)
                 (A) (A) (A) (A) (A) (A) (A) (A) (A) (A) (A) (A)
                 (A) (A) (A) (A) (A) (A) (A) (A) (A) (A) (A) (A)
                 (A) (A) (A) (A) (A) (A) (A) (A) (A) (A) (A) (A)
                 (A) (A) (A) (A) (A) (A) (A) (A) (A) (A) (A) (A)
                 (A) (A) (A) (A) (A) (A) (A) (A) (A) (A) (A) (A)
                 (A) (A) (A) (A) (A) (A) (A) (A) (A) (A) (A) (A)
                 (A) (A) (A) (A) (A) (A) (A) (A) (A) (A) (A) (A)
                 (A) (A) (A) (A) (A) (A) (A) (A) (A) (A) (A) (A)
                 (A) (A) (A) (A) (A) (A) (A) (A) (A) (A) (A) (A)
                 (A) (A) (A) (A) (A) (A) (A) (A) (A) (A) (A) (A)
                 (A) (A) (A) (A) (A) (A) (A) (A) (A) (A) (A) (A)
                 (A) (A) (A) (A) (A) (A) (A) (A) (A) (A) (A) (A)
                 (A) (A) (A) (A) (A) (A) (A) (A) (A) (A) (A) (A)
                 (A) (A) (A) (A) (A) (A) (A) (A) (A) (A) (A) (A)
                 (A) (A) (A) (A) (A) (A) (A)
 The electronic state is 1-A.
 Alpha  occ. eigenvalues --  -77.15389 -77.14054 -19.13706 -19.13391 -19.12130
 Alpha  occ. eigenvalues --  -19.06818 -19.06238 -19.05351 -19.05151 -14.32724
 Alpha  occ. eigenvalues --  -10.21557 -10.21455 -10.21371 -10.19682 -10.19427
 Alpha  occ. eigenvalues --  -10.19138 -10.18143  -6.60235  -6.58915  -4.76727
 Alpha  occ. eigenvalues --   -4.76457  -4.76420  -4.75411  -4.75139  -4.75088
 Alpha  occ. eigenvalues --   -1.01558  -1.00195  -0.98393  -0.93356  -0.92735
 Alpha  occ. eigenvalues --   -0.91615  -0.89006  -0.87598  -0.80594  -0.76851
 Alpha  occ. eigenvalues --   -0.71768  -0.63109  -0.62080  -0.58210  -0.54607
 Alpha  occ. eigenvalues --   -0.51677  -0.50973  -0.50006  -0.47856  -0.46479
 Alpha  occ. eigenvalues --   -0.44681  -0.42508  -0.41051  -0.40901  -0.39142
 Alpha  occ. eigenvalues --   -0.38350  -0.37861  -0.37734  -0.36914  -0.35710
 Alpha  occ. eigenvalues --   -0.35050  -0.34333  -0.33241  -0.32814  -0.30115
 Alpha  occ. eigenvalues --   -0.29954  -0.28288  -0.27650  -0.27424  -0.26288
 Alpha  occ. eigenvalues --   -0.25575  -0.25284  -0.24544  -0.23918  -0.23393
 Alpha  occ. eigenvalues --   -0.23008  -0.21742  -0.21140
 Alpha virt. eigenvalues --   -0.01816  -0.00339   0.08549   0.10362   0.11533
 Alpha virt. eigenvalues --    0.11983   0.12572   0.13908   0.14470   0.16352
 Alpha virt. eigenvalues --    0.17119   0.17836   0.18001   0.19260   0.19954
 Alpha virt. eigenvalues --    0.20465   0.21143   0.22022   0.22510   0.25090
 Alpha virt. eigenvalues --    0.27314   0.27993   0.28090   0.28904   0.32353
 Alpha virt. eigenvalues --    0.34463   0.35304   0.36804   0.37762   0.40399
 Alpha virt. eigenvalues --    0.41959   0.43162   0.44617   0.45313   0.46733
 Alpha virt. eigenvalues --    0.48648   0.49531   0.53114   0.56530   0.57659
 Alpha virt. eigenvalues --    0.58262   0.59095   0.59912   0.60240   0.60799
 Alpha virt. eigenvalues --    0.61863   0.62716   0.63996   0.65051   0.66911
 Alpha virt. eigenvalues --    0.68148   0.69263   0.71022   0.73025   0.76200
 Alpha virt. eigenvalues --    0.77246   0.78556   0.80302   0.81169   0.81568
 Alpha virt. eigenvalues --    0.82697   0.83334   0.84374   0.84522   0.85587
 Alpha virt. eigenvalues --    0.86278   0.87635   0.88092   0.89551   0.91365
 Alpha virt. eigenvalues --    0.92873   0.93474   0.94099   0.96289   0.98235
 Alpha virt. eigenvalues --    0.98299   0.98602   1.00575   1.02953   1.03788
 Alpha virt. eigenvalues --    1.04575   1.05928   1.07403   1.07651   1.08011
 Alpha virt. eigenvalues --    1.08387   1.09397   1.09934   1.11074   1.12108
 Alpha virt. eigenvalues --    1.12836   1.15639   1.15906   1.17502   1.19077
 Alpha virt. eigenvalues --    1.19881   1.21018   1.22870   1.23648   1.25864
 Alpha virt. eigenvalues --    1.26744   1.28489   1.28833   1.31302   1.33276
 Alpha virt. eigenvalues --    1.35162   1.36347   1.37813   1.40696   1.41835
 Alpha virt. eigenvalues --    1.42123   1.44691   1.46931   1.47913   1.48112
 Alpha virt. eigenvalues --    1.52390   1.55010   1.56360   1.57815   1.59797
 Alpha virt. eigenvalues --    1.63174   1.64103   1.66633   1.69018   1.71328
 Alpha virt. eigenvalues --    1.74550   1.75209   1.77123   1.77660   1.79158
 Alpha virt. eigenvalues --    1.80118   1.83028   1.83471   1.84258   1.85801
 Alpha virt. eigenvalues --    1.86508   1.87103   1.87996   1.89451   1.90021
 Alpha virt. eigenvalues --    1.91027   1.91222   1.92041   1.93640   1.94852
 Alpha virt. eigenvalues --    1.95134   1.97648   1.98278   2.00367   2.01497
 Alpha virt. eigenvalues --    2.03886   2.05272   2.06162   2.09359   2.10944
 Alpha virt. eigenvalues --    2.11341   2.12753   2.13547   2.13882   2.15273
 Alpha virt. eigenvalues --    2.20027   2.23510   2.23712   2.25853   2.28735
 Alpha virt. eigenvalues --    2.30266   2.32203   2.32298   2.33525   2.34855
 Alpha virt. eigenvalues --    2.37356   2.38103   2.39099   2.39911   2.41836
 Alpha virt. eigenvalues --    2.43440   2.46127   2.48013   2.50413   2.51809
 Alpha virt. eigenvalues --    2.52806   2.54140   2.55520   2.56746   2.60423
 Alpha virt. eigenvalues --    2.62341   2.64725   2.66795   2.67661   2.68285
 Alpha virt. eigenvalues --    2.68962   2.70715   2.72196   2.74696   2.76685
 Alpha virt. eigenvalues --    2.77198   2.79783   2.82002   2.84228   2.86695
 Alpha virt. eigenvalues --    2.87268   2.88603   2.89012   2.96489   3.00034
 Alpha virt. eigenvalues --    3.01211   3.08703   3.19019   3.24439   3.27493
 Alpha virt. eigenvalues --    3.33619   3.40315   3.42616   3.45245   3.46050
 Alpha virt. eigenvalues --    3.50133   3.51572   3.55736   3.61284   3.80212
 Alpha virt. eigenvalues --    3.82932   3.88795   3.98932   4.00047   4.08526
 Alpha virt. eigenvalues --    4.12151   4.15133   4.20190   4.21132   4.25633
 Alpha virt. eigenvalues --    4.34043   4.40048   4.49100   4.66624   4.77127
     Molecular Orbital Coefficients:
                           1         2         3         4         5
                           O         O         O         O         O
     Eigenvalues --   -77.15389 -77.14054 -19.13706 -19.13391 -19.12130
   1 1   C  1S         -0.00001  -0.00001   0.00001   0.00001  -0.00001
   2        2S         -0.00002  -0.00000   0.00001   0.00010  -0.00007
   3        2PX         0.00004   0.00003   0.00001  -0.00004   0.00006
   4        2PY        -0.00002   0.00000  -0.00001   0.00001   0.00001
   5        2PZ        -0.00002  -0.00000   0.00000   0.00006   0.00002
   6        3S          0.00034  -0.00021  -0.00024   0.00014  -0.00019
   7        3PX         0.00015  -0.00008   0.00042  -0.00016  -0.00120
   8        3PY        -0.00018  -0.00015  -0.00000   0.00015  -0.00025
   9        3PZ         0.00010  -0.00023   0.00012  -0.00023  -0.00003
  10        4XX        -0.00002  -0.00004   0.00002   0.00003  -0.00004
  11        4YY        -0.00006  -0.00001   0.00005   0.00003  -0.00001
  12        4ZZ        -0.00003  -0.00002   0.00002  -0.00004  -0.00001
  13        4XY         0.00002   0.00002   0.00003   0.00001   0.00001
  14        4XZ        -0.00000   0.00001  -0.00000  -0.00001  -0.00003
  15        4YZ        -0.00002   0.00000   0.00000   0.00000  -0.00000
  16 2   H  1S          0.00002   0.00001  -0.00002  -0.00002  -0.00006
  17        2S         -0.00008  -0.00028   0.00030  -0.00018   0.00009
  18        3PX         0.00001   0.00004   0.00000   0.00003   0.00004
  19        3PY        -0.00002   0.00001   0.00002  -0.00001   0.00001
  20        3PZ        -0.00001  -0.00002   0.00002  -0.00001   0.00001
  21 3   H  1S         -0.00003  -0.00001   0.00002   0.00002  -0.00003
  22        2S         -0.00007  -0.00021   0.00002   0.00017  -0.00006
  23        3PX        -0.00001   0.00003  -0.00002  -0.00002   0.00001
  24        3PY         0.00001  -0.00002  -0.00001   0.00001  -0.00002
  25        3PZ        -0.00000   0.00001   0.00000   0.00005   0.00001
  26 4   C  1S         -0.00004  -0.00004  -0.00001   0.00001  -0.00001
  27        2S         -0.00006  -0.00005  -0.00008   0.00016  -0.00006
  28        2PX         0.00000  -0.00004  -0.00000   0.00007  -0.00001
  29        2PY         0.00004  -0.00004   0.00002  -0.00009  -0.00005
  30        2PZ         0.00002  -0.00001   0.00001   0.00027   0.00001
  31        3S          0.00096   0.00091   0.00042  -0.00179   0.00044
  32        3PX         0.00000  -0.00034   0.00017  -0.00041  -0.00039
  33        3PY         0.00048  -0.00017   0.00019   0.00040   0.00022
  34        3PZ         0.00002  -0.00004  -0.00067  -0.00091  -0.00001
  35        4XX        -0.00008  -0.00011  -0.00001   0.00006   0.00002
  36        4YY        -0.00015  -0.00008   0.00004   0.00007  -0.00002
  37        4ZZ        -0.00006  -0.00008  -0.00006   0.00034  -0.00002
  38        4XY         0.00001  -0.00003   0.00001   0.00000   0.00002
  39        4XZ        -0.00000  -0.00002  -0.00002   0.00005   0.00003
  40        4YZ        -0.00000  -0.00001  -0.00000  -0.00007   0.00000
  41 5   O  1S          0.00000  -0.00000   0.00018   0.99270  -0.00004
  42        2S          0.00001  -0.00001  -0.00014   0.02571  -0.00010
  43        2PX         0.00000   0.00001  -0.00000  -0.00034   0.00002
  44        2PY        -0.00002  -0.00000  -0.00002   0.00081   0.00002
  45        2PZ         0.00000   0.00002   0.00003  -0.00026  -0.00001
  46        3S         -0.00017  -0.00013   0.00070   0.01280   0.00047
  47        3PX        -0.00002   0.00005  -0.00004  -0.00001  -0.00014
  48        3PY        -0.00004   0.00003   0.00011  -0.00003  -0.00020
  49        3PZ         0.00015   0.00008  -0.00023  -0.00045  -0.00005
  50        4XX        -0.00003   0.00000  -0.00011  -0.00822  -0.00005
  51        4YY         0.00003  -0.00004  -0.00010  -0.00823  -0.00007
  52        4ZZ         0.00000  -0.00002  -0.00007  -0.00832  -0.00008
  53        4XY        -0.00001   0.00002   0.00000   0.00001   0.00002
  54        4XZ        -0.00000   0.00001   0.00001  -0.00002  -0.00001
  55        4YZ         0.00002  -0.00001  -0.00002   0.00005   0.00001
  56 6   H  1S         -0.00002   0.00002  -0.00006   0.00039  -0.00003
  57        2S         -0.00024  -0.00013   0.00002  -0.00155   0.00011
  58        3PX         0.00000   0.00002   0.00001  -0.00002   0.00002
  59        3PY         0.00002   0.00000  -0.00001   0.00005  -0.00000
  60        3PZ        -0.00001   0.00002   0.00000   0.00008  -0.00001
  61 7   C  1S          0.00002  -0.00001   0.00002  -0.00002  -0.00001
  62        2S          0.00008  -0.00001   0.00004  -0.00013  -0.00005
  63        2PX        -0.00003   0.00002  -0.00003   0.00001   0.00003
  64        2PY         0.00001   0.00000   0.00005  -0.00000  -0.00000
  65        2PZ         0.00002  -0.00000  -0.00003   0.00002  -0.00000
  66        3S         -0.00056  -0.00005  -0.00054   0.00146   0.00046
  67        3PX         0.00030  -0.00047   0.00020   0.00011  -0.00103
  68        3PY         0.00006  -0.00005   0.00001  -0.00017  -0.00011
  69        3PZ        -0.00024   0.00006  -0.00002   0.00093  -0.00027
  70        4XX         0.00003   0.00000   0.00003   0.00001   0.00002
  71        4YY         0.00005  -0.00001   0.00007  -0.00003  -0.00002
  72        4ZZ         0.00004  -0.00002   0.00005   0.00004  -0.00002
  73        4XY         0.00001  -0.00000  -0.00001   0.00001   0.00001
  74        4XZ        -0.00001   0.00000   0.00000  -0.00001   0.00001
  75        4YZ        -0.00000   0.00000  -0.00001  -0.00001   0.00001
  76 8   C  1S         -0.00000  -0.00000  -0.00002   0.00000  -0.00000
  77        2S         -0.00002  -0.00001  -0.00008  -0.00004  -0.00002
  78        2PX        -0.00001   0.00000   0.00001  -0.00009  -0.00000
  79        2PY         0.00001   0.00000  -0.00005   0.00005  -0.00000
  80        2PZ         0.00000   0.00000   0.00001  -0.00002   0.00000
  81        3S          0.00025   0.00015   0.00055   0.00024   0.00036
  82        3PX        -0.00008   0.00013  -0.00000   0.00104   0.00020
  83        3PY         0.00002   0.00004   0.00022  -0.00038   0.00013
  84        3PZ        -0.00014  -0.00012  -0.00015   0.00130  -0.00031
  85        4XX         0.00002  -0.00001  -0.00004   0.00010  -0.00001
  86        4YY         0.00001  -0.00001  -0.00005   0.00001  -0.00001
  87        4ZZ        -0.00000   0.00001  -0.00006  -0.00002   0.00001
  88        4XY        -0.00000   0.00000  -0.00000   0.00003   0.00000
  89        4XZ         0.00001  -0.00000   0.00001  -0.00005  -0.00000
  90        4YZ        -0.00000  -0.00000  -0.00001   0.00002  -0.00001
  91 9   C  1S          0.00000  -0.00000   0.00002   0.00000  -0.00000
  92        2S          0.00001  -0.00001   0.00004   0.00001  -0.00002
  93        2PX        -0.00000  -0.00000  -0.00005   0.00001   0.00000
  94        2PY         0.00001  -0.00000   0.00005   0.00000   0.00000
  95        2PZ        -0.00000   0.00000   0.00002  -0.00000   0.00000
  96        3S         -0.00010   0.00019  -0.00034  -0.00010   0.00030
  97        3PX         0.00006  -0.00004   0.00003  -0.00034   0.00011
  98        3PY         0.00003  -0.00008  -0.00011  -0.00006  -0.00007
  99        3PZ        -0.00006   0.00023  -0.00010  -0.00009   0.00026
 100        4XX         0.00001  -0.00001   0.00006  -0.00001  -0.00001
 101        4YY         0.00000   0.00000   0.00007   0.00001  -0.00001
 102        4ZZ        -0.00001   0.00001   0.00003  -0.00001   0.00001
 103        4XY        -0.00000   0.00000  -0.00002  -0.00000   0.00000
 104        4XZ         0.00001  -0.00001  -0.00000   0.00001  -0.00000
 105        4YZ         0.00001  -0.00001   0.00002   0.00001  -0.00001
 106 10  C  1S          0.00000   0.00000   0.00000   0.00001  -0.00000
 107        2S          0.00001   0.00000   0.00002   0.00007  -0.00000
 108        2PX         0.00001   0.00000   0.00001   0.00002   0.00001
 109        2PY        -0.00000   0.00000  -0.00001  -0.00002   0.00000
 110        2PZ        -0.00000   0.00000  -0.00000   0.00001   0.00000
 111        3S         -0.00007  -0.00010  -0.00020  -0.00087  -0.00020
 112        3PX        -0.00001   0.00004   0.00011   0.00080   0.00003
 113        3PY        -0.00002   0.00000  -0.00005   0.00034  -0.00002
 114        3PZ         0.00011   0.00004   0.00014  -0.00030   0.00009
 115        4XX        -0.00001   0.00000  -0.00001  -0.00004   0.00000
 116        4YY         0.00000  -0.00000  -0.00000   0.00002  -0.00001
 117        4ZZ        -0.00000  -0.00000  -0.00001   0.00000  -0.00000
 118        4XY        -0.00000  -0.00000   0.00001  -0.00002   0.00000
 119        4XZ        -0.00000  -0.00000  -0.00000  -0.00000   0.00000
 120        4YZ        -0.00000  -0.00000   0.00000   0.00000  -0.00000
 121 11  H  1S          0.00000   0.00001  -0.00001   0.00011   0.00001
 122        2S          0.00000   0.00007   0.00002  -0.00093   0.00018
 123        3PX         0.00000   0.00000   0.00001  -0.00005   0.00001
 124        3PY         0.00000   0.00000  -0.00001  -0.00005   0.00000
 125        3PZ         0.00000  -0.00000  -0.00000   0.00003  -0.00000
 126 12  N  1S          0.00000  -0.00000  -0.00001  -0.00000   0.00000
 127        2S          0.00001   0.00000  -0.00001  -0.00001   0.00001
 128        2PX         0.00000   0.00000   0.00001   0.00001   0.00000
 129        2PY        -0.00000  -0.00000  -0.00001  -0.00000  -0.00000
 130        2PZ        -0.00000   0.00000  -0.00000  -0.00000  -0.00000
 131        3S         -0.00007  -0.00005   0.00006   0.00003  -0.00016
 132        3PX         0.00003  -0.00003  -0.00010  -0.00022   0.00004
 133        3PY         0.00001   0.00002   0.00007   0.00002   0.00002
 134        3PZ         0.00000  -0.00006  -0.00002  -0.00013  -0.00004
 135        4XX        -0.00000   0.00000  -0.00001   0.00001   0.00001
 136        4YY         0.00000  -0.00000  -0.00002  -0.00001  -0.00000
 137        4ZZ         0.00000  -0.00000  -0.00002  -0.00001   0.00000
 138        4XY        -0.00000   0.00000  -0.00001   0.00000   0.00000
 139        4XZ         0.00000   0.00000  -0.00001  -0.00000   0.00000
 140        4YZ         0.00000   0.00000   0.00000   0.00000  -0.00000
 141 13  H  1S          0.00001  -0.00000   0.00003  -0.00002   0.00001
 142        2S         -0.00002   0.00013   0.00000  -0.00001   0.00010
 143        3PX        -0.00001   0.00000  -0.00001   0.00000   0.00000
 144        3PY        -0.00000   0.00000   0.00002   0.00000   0.00000
 145        3PZ         0.00000   0.00000   0.00001   0.00000  -0.00000
 146 14  C  1S         -0.00000   0.00000  -0.00000  -0.00000  -0.00000
 147        2S         -0.00000   0.00000  -0.00001  -0.00001  -0.00001
 148        2PX        -0.00000  -0.00000   0.00000   0.00001   0.00000
 149        2PY        -0.00000   0.00000  -0.00001   0.00000   0.00000
 150        2PZ         0.00000  -0.00000   0.00000   0.00000  -0.00000
 151        3S          0.00010   0.00006   0.00015  -0.00016   0.00011
 152        3PX        -0.00005  -0.00002  -0.00008  -0.00014  -0.00006
 153        3PY        -0.00002   0.00000   0.00001   0.00004  -0.00001
 154        3PZ         0.00002  -0.00003  -0.00005  -0.00040   0.00001
 155        4XX        -0.00000   0.00000  -0.00001   0.00000   0.00000
 156        4YY        -0.00000   0.00000  -0.00001  -0.00000  -0.00000
 157        4ZZ        -0.00000   0.00000   0.00001   0.00001   0.00000
 158        4XY         0.00000   0.00000   0.00000   0.00000   0.00000
 159        4XZ        -0.00000  -0.00000  -0.00000   0.00000  -0.00000
 160        4YZ        -0.00000  -0.00000   0.00000  -0.00001  -0.00000
 161 15  H  1S         -0.00001  -0.00000  -0.00000   0.00004  -0.00000
 162        2S         -0.00003  -0.00001  -0.00005   0.00009  -0.00001
 163        3PX         0.00000  -0.00000  -0.00000  -0.00003  -0.00000
 164        3PY        -0.00000  -0.00000   0.00000  -0.00001   0.00000
 165        3PZ        -0.00000  -0.00000  -0.00000   0.00000  -0.00000
 166 16  H  1S          0.00000  -0.00000   0.00000   0.00003   0.00000
 167        2S          0.00001   0.00000   0.00002   0.00007   0.00002
 168        3PX         0.00000   0.00000  -0.00000  -0.00000   0.00000
 169        3PY         0.00000   0.00000  -0.00000   0.00000   0.00000
 170        3PZ        -0.00000   0.00000   0.00000   0.00001  -0.00000
 171 17  P  1S          0.99625   0.00013   0.00000   0.00000   0.00000
 172        2S          0.01417   0.00000  -0.00002   0.00001   0.00001
 173        2PX         0.00003  -0.00000  -0.00007   0.00000  -0.00000
 174        2PY        -0.00002  -0.00001  -0.00002  -0.00000  -0.00001
 175        2PZ        -0.00000  -0.00000   0.00002  -0.00001   0.00000
 176        3S         -0.02721   0.00012  -0.00005   0.00008   0.00005
 177        3PX        -0.00005   0.00001   0.00013  -0.00002   0.00001
 178        3PY         0.00018   0.00010  -0.00002  -0.00004   0.00004
 179        3PZ        -0.00001   0.00004  -0.00003   0.00009   0.00000
 180        4S          0.00282  -0.00018  -0.00215   0.00014  -0.00039
 181        4PX        -0.00010   0.00017  -0.00113  -0.00015   0.00028
 182        4PY        -0.00025   0.00005  -0.00019   0.00002   0.00014
 183        4PZ         0.00009   0.00005   0.00104   0.00026   0.00008
 184        5XX         0.00942  -0.00004   0.00031  -0.00001   0.00001
 185        5YY         0.00940  -0.00010   0.00005   0.00002  -0.00003
 186        5ZZ         0.00947  -0.00003  -0.00003   0.00001  -0.00001
 187        5XY        -0.00001  -0.00004   0.00009  -0.00002  -0.00001
 188        5XZ        -0.00001   0.00000  -0.00010  -0.00001  -0.00001
 189        5YZ         0.00002   0.00001  -0.00002   0.00003   0.00001
 190 18  P  1S         -0.00012   0.99625   0.00000   0.00000   0.00001
 191        2S          0.00000   0.01417  -0.00000   0.00003   0.00003
 192        2PX         0.00001   0.00003   0.00000  -0.00001  -0.00003
 193        2PY         0.00001  -0.00002  -0.00000   0.00001   0.00006
 194        2PZ         0.00000   0.00002  -0.00001   0.00001  -0.00003
 195        3S          0.00015  -0.02717   0.00001   0.00016   0.00016
 196        3PX        -0.00006  -0.00016  -0.00002   0.00014   0.00020
 197        3PY        -0.00004  -0.00003   0.00000  -0.00003  -0.00006
 198        3PZ        -0.00003  -0.00007   0.00003  -0.00000   0.00011
 199        4S         -0.00032   0.00282  -0.00003  -0.00037  -0.00310
 200        4PX        -0.00003   0.00018   0.00013  -0.00019  -0.00100
 201        4PY        -0.00017   0.00020  -0.00016  -0.00013   0.00165
 202        4PZ         0.00002  -0.00002  -0.00022  -0.00010  -0.00013
 203        5XX        -0.00006   0.00941  -0.00003   0.00003   0.00011
 204        5YY        -0.00007   0.00945  -0.00001   0.00004   0.00025
 205        5ZZ        -0.00005   0.00946   0.00002  -0.00005   0.00004
 206        5XY        -0.00005  -0.00001  -0.00001  -0.00001  -0.00003
 207        5XZ        -0.00000  -0.00003   0.00004  -0.00001   0.00005
 208        5YZ        -0.00000   0.00001   0.00002  -0.00000  -0.00019
 209 19  O  1S          0.00001   0.00001  -0.00002  -0.00001  -0.00000
 210        2S         -0.00002   0.00002   0.00004   0.00002  -0.00000
 211        2PX        -0.00004  -0.00000  -0.00003   0.00001   0.00001
 212        2PY         0.00004  -0.00002  -0.00002   0.00001  -0.00001
 213        2PZ         0.00015  -0.00001  -0.00002  -0.00004   0.00001
 214        3S          0.00046  -0.00009  -0.00013  -0.00006   0.00002
 215        3PX         0.00010  -0.00001   0.00019  -0.00001  -0.00006
 216        3PY        -0.00007   0.00003   0.00006  -0.00013   0.00002
 217        3PZ        -0.00035   0.00005  -0.00008   0.00023  -0.00004
 218        4XX         0.00004   0.00003   0.00001   0.00002   0.00001
 219        4YY         0.00004   0.00003   0.00006   0.00002  -0.00000
 220        4ZZ        -0.00017   0.00002   0.00007  -0.00001   0.00001
 221        4XY         0.00001  -0.00001  -0.00003   0.00001  -0.00000
 222        4XZ         0.00005   0.00001   0.00000   0.00001   0.00001
 223        4YZ        -0.00010  -0.00001  -0.00000  -0.00004   0.00000
 224 20  O  1S         -0.00002  -0.00000   0.99274  -0.00023   0.00001
 225        2S         -0.00008  -0.00000   0.02590  -0.00005   0.00001
 226        2PX         0.00005   0.00000   0.00003   0.00001  -0.00000
 227        2PY         0.00002   0.00001  -0.00033   0.00001   0.00001
 228        2PZ        -0.00003   0.00000   0.00085   0.00000   0.00000
 229        3S          0.00092  -0.00002   0.01198   0.00020  -0.00006
 230        3PX        -0.00030  -0.00001  -0.00038  -0.00007   0.00001
 231        3PY        -0.00011  -0.00002  -0.00015  -0.00004  -0.00002
 232        3PZ         0.00021  -0.00001  -0.00011  -0.00004  -0.00002
 233        4XX        -0.00024   0.00000  -0.00811  -0.00004   0.00001
 234        4YY        -0.00009  -0.00000  -0.00809  -0.00004   0.00001
 235        4ZZ        -0.00004  -0.00001  -0.00807  -0.00005   0.00001
 236        4XY        -0.00008   0.00000  -0.00003   0.00001   0.00000
 237        4XZ         0.00009   0.00000   0.00006  -0.00000   0.00000
 238        4YZ         0.00000  -0.00000  -0.00001  -0.00001   0.00000
 239 21  O  1S          0.00001   0.00000  -0.00003   0.00000  -0.00001
 240        2S         -0.00006   0.00001  -0.00018   0.00001  -0.00005
 241        2PX        -0.00010  -0.00000  -0.00001  -0.00000  -0.00001
 242        2PY         0.00005  -0.00001  -0.00000  -0.00000  -0.00000
 243        2PZ        -0.00014  -0.00001   0.00004   0.00002  -0.00001
 244        3S          0.00059   0.00000   0.00117   0.00000   0.00026
 245        3PX         0.00024   0.00002   0.00025   0.00004   0.00004
 246        3PY        -0.00009   0.00006  -0.00007   0.00001  -0.00001
 247        3PZ         0.00033   0.00003  -0.00000  -0.00006   0.00005
 248        4XX        -0.00003   0.00001  -0.00019   0.00002  -0.00003
 249        4YY         0.00001  -0.00001  -0.00009   0.00000  -0.00003
 250        4ZZ        -0.00011   0.00002  -0.00012  -0.00000  -0.00002
 251        4XY         0.00006  -0.00001  -0.00003   0.00000  -0.00001
 252        4XZ        -0.00012  -0.00000   0.00000   0.00001  -0.00000
 253        4YZ         0.00008   0.00000   0.00001   0.00000   0.00000
 254 22  O  1S          0.00000   0.00001  -0.00001  -0.00002  -0.00002
 255        2S          0.00002  -0.00003  -0.00003  -0.00007   0.00002
 256        2PX         0.00001  -0.00011   0.00001  -0.00002   0.00001
 257        2PY         0.00001   0.00010   0.00002   0.00000   0.00001
 258        2PZ         0.00001   0.00009   0.00000  -0.00001  -0.00003
 259        3S         -0.00001   0.00049   0.00019   0.00029  -0.00001
 260        3PX        -0.00004   0.00025  -0.00000   0.00012   0.00011
 261        3PY        -0.00005  -0.00025  -0.00008  -0.00002  -0.00022
 262        3PZ        -0.00003  -0.00020  -0.00000   0.00003   0.00009
 263        4XX         0.00000  -0.00009  -0.00002  -0.00002   0.00006
 264        4YY         0.00001  -0.00000  -0.00002  -0.00005   0.00002
 265        4ZZ         0.00002  -0.00000  -0.00001  -0.00005   0.00003
 266        4XY        -0.00002   0.00011  -0.00001  -0.00001  -0.00001
 267        4XZ         0.00000   0.00010   0.00000   0.00001   0.00001
 268        4YZ        -0.00000  -0.00007  -0.00000  -0.00001   0.00004
 269 23  O  1S         -0.00001  -0.00002  -0.00001  -0.00002   0.99272
 270        2S         -0.00002  -0.00005  -0.00001  -0.00014   0.02576
 271        2PX        -0.00001   0.00001  -0.00000  -0.00000   0.00030
 272        2PY        -0.00001  -0.00005  -0.00001   0.00003   0.00064
 273        2PZ         0.00000   0.00001  -0.00001  -0.00004   0.00055
 274        3S          0.00008   0.00080   0.00001   0.00077   0.01261
 275        3PX         0.00003  -0.00005  -0.00000   0.00013   0.00005
 276        3PY         0.00005   0.00035   0.00006   0.00002   0.00043
 277        3PZ         0.00001  -0.00008   0.00004   0.00025  -0.00041
 278        4XX        -0.00002  -0.00004  -0.00000  -0.00007  -0.00815
 279        4YY        -0.00001  -0.00022   0.00000  -0.00009  -0.00820
 280        4ZZ        -0.00002  -0.00005  -0.00001  -0.00009  -0.00810
 281        4XY         0.00000   0.00002   0.00000   0.00001   0.00003
 282        4XZ         0.00000   0.00001   0.00001   0.00001   0.00002
 283        4YZ        -0.00000   0.00010   0.00001   0.00004   0.00002
 284 24  O  1S          0.00000   0.00001   0.00001   0.00000  -0.00004
 285        2S         -0.00001  -0.00003   0.00005   0.00001  -0.00026
 286        2PX         0.00001  -0.00000   0.00001  -0.00000  -0.00002
 287        2PY         0.00001  -0.00002  -0.00001   0.00000   0.00004
 288        2PZ         0.00001  -0.00017   0.00000   0.00001   0.00001
 289        3S          0.00004   0.00046  -0.00028  -0.00002   0.00153
 290        3PX        -0.00001  -0.00002  -0.00005   0.00001   0.00018
 291        3PY         0.00000   0.00003   0.00003   0.00002  -0.00022
 292        3PZ        -0.00000   0.00040  -0.00004  -0.00000   0.00032
 293        4XX         0.00001   0.00006   0.00004   0.00000  -0.00014
 294        4YY         0.00000   0.00005   0.00005   0.00001  -0.00021
 295        4ZZ         0.00000  -0.00018   0.00004   0.00001  -0.00016
 296        4XY        -0.00001  -0.00000  -0.00000  -0.00001   0.00002
 297        4XZ        -0.00000  -0.00003  -0.00000  -0.00001   0.00001
 298        4YZ        -0.00000  -0.00006   0.00000   0.00000   0.00001
 299 25  H  1S         -0.00010   0.00000   0.00030   0.00000   0.00001
 300        2S         -0.00020  -0.00002  -0.00098   0.00004  -0.00005
 301        3PX         0.00001   0.00000   0.00012  -0.00001   0.00000
 302        3PY        -0.00000   0.00000  -0.00001   0.00001   0.00000
 303        3PZ         0.00000  -0.00000   0.00011  -0.00001   0.00000
 304 26  H  1S         -0.00002  -0.00007  -0.00003  -0.00005   0.00030
 305        2S          0.00000  -0.00018   0.00005  -0.00075  -0.00102
 306        3PX         0.00000  -0.00001   0.00000  -0.00009   0.00006
 307        3PY         0.00000   0.00002   0.00000  -0.00013   0.00000
 308        3PZ         0.00000  -0.00001  -0.00000   0.00004   0.00016
                           6         7         8         9        10
                           O         O         O         O         O
     Eigenvalues --   -19.06818 -19.06238 -19.05351 -19.05151 -14.32724
   1 1   C  1S          0.00001  -0.00003   0.00001  -0.00000   0.00000
   2        2S          0.00007  -0.00014   0.00004  -0.00003  -0.00000
   3        2PX         0.00001   0.00002   0.00004  -0.00007   0.00001
   4        2PY         0.00001  -0.00006   0.00001  -0.00001   0.00000
   5        2PZ        -0.00002   0.00000  -0.00001  -0.00001   0.00000
   6        3S         -0.00047   0.00090  -0.00083   0.00069  -0.00003
   7        3PX        -0.00025   0.00011  -0.00043   0.00105   0.00002
   8        3PY        -0.00026   0.00045  -0.00016   0.00007   0.00001
   9        3PZ        -0.00019   0.00047  -0.00026   0.00010  -0.00006
  10        4XX         0.00002  -0.00004   0.00001   0.00003   0.00002
  11        4YY         0.00001  -0.00008   0.00001   0.00000   0.00000
  12        4ZZ        -0.00001  -0.00004   0.00003  -0.00000  -0.00000
  13        4XY         0.00000  -0.00001   0.00001   0.00002   0.00000
  14        4XZ         0.00000  -0.00002   0.00002   0.00002   0.00001
  15        4YZ        -0.00002   0.00002   0.00000   0.00000   0.00000
  16 2   H  1S          0.00005  -0.00008   0.00006   0.00004   0.00000
  17        2S         -0.00014   0.00036  -0.00008  -0.00012  -0.00005
  18        3PX         0.00000  -0.00000  -0.00001  -0.00003  -0.00000
  19        3PY         0.00001  -0.00002   0.00001  -0.00001  -0.00000
  20        3PZ        -0.00001   0.00003  -0.00003  -0.00000  -0.00000
  21 3   H  1S         -0.00001   0.00001  -0.00003   0.00006   0.00000
  22        2S         -0.00007   0.00018   0.00036  -0.00022  -0.00000
  23        3PX         0.00001  -0.00000  -0.00003  -0.00002  -0.00000
  24        3PY        -0.00000   0.00003   0.00002  -0.00001  -0.00000
  25        3PZ         0.00001  -0.00002  -0.00001  -0.00000   0.00000
  26 4   C  1S         -0.00004  -0.00001  -0.00003  -0.00003   0.00000
  27        2S         -0.00023  -0.00006  -0.00019  -0.00016   0.00001
  28        2PX        -0.00004   0.00004  -0.00001   0.00002   0.00000
  29        2PY        -0.00004   0.00000   0.00001  -0.00001  -0.00000
  30        2PZ        -0.00001   0.00005   0.00004  -0.00002   0.00000
  31        3S          0.00158   0.00003   0.00106   0.00098  -0.00001
  32        3PX         0.00046  -0.00072  -0.00021  -0.00052  -0.00000
  33        3PY         0.00058   0.00047  -0.00045  -0.00004  -0.00002
  34        3PZ         0.00063  -0.00046  -0.00043  -0.00011  -0.00002
  35        4XX        -0.00006  -0.00001   0.00001   0.00002   0.00000
  36        4YY        -0.00002   0.00005  -0.00002  -0.00002   0.00000
  37        4ZZ        -0.00000  -0.00003  -0.00002  -0.00004   0.00000
  38        4XY        -0.00001   0.00000   0.00002   0.00000  -0.00000
  39        4XZ         0.00001   0.00001   0.00003   0.00000  -0.00000
  40        4YZ        -0.00003  -0.00001   0.00002   0.00001   0.00000
  41 5   O  1S          0.00001  -0.00001   0.00000  -0.00002   0.00000
  42        2S          0.00002  -0.00002   0.00002  -0.00010   0.00000
  43        2PX        -0.00002   0.00001  -0.00003   0.00004   0.00000
  44        2PY        -0.00002   0.00002  -0.00000  -0.00001  -0.00000
  45        2PZ        -0.00005  -0.00001  -0.00001   0.00001  -0.00000
  46        3S         -0.00021   0.00030  -0.00006   0.00034  -0.00000
  47        3PX         0.00005   0.00000   0.00014  -0.00016  -0.00001
  48        3PY         0.00010  -0.00010   0.00005   0.00004   0.00001
  49        3PZ         0.00041  -0.00009   0.00007  -0.00006   0.00000
  50        4XX         0.00002  -0.00001   0.00001  -0.00003   0.00000
  51        4YY         0.00003  -0.00002   0.00003  -0.00009   0.00001
  52        4ZZ        -0.00006   0.00002   0.00001  -0.00007   0.00000
  53        4XY         0.00001   0.00000   0.00001  -0.00001  -0.00000
  54        4XZ         0.00000  -0.00001  -0.00001   0.00000   0.00000
  55        4YZ         0.00003   0.00001  -0.00001  -0.00000   0.00000
  56 6   H  1S         -0.00007   0.00004   0.00004  -0.00006  -0.00000
  57        2S         -0.00039  -0.00021  -0.00013   0.00013  -0.00000
  58        3PX         0.00001  -0.00001  -0.00001   0.00000  -0.00000
  59        3PY        -0.00012  -0.00000   0.00001  -0.00001   0.00000
  60        3PZ         0.00006   0.00001   0.00000  -0.00000   0.00000
  61 7   C  1S         -0.00000   0.00000  -0.00000   0.00000   0.00001
  62        2S         -0.00001   0.00001  -0.00002   0.00004   0.00008
  63        2PX         0.00001  -0.00001   0.00001   0.00000  -0.00004
  64        2PY        -0.00000  -0.00001  -0.00002   0.00000  -0.00001
  65        2PZ         0.00000   0.00000   0.00000  -0.00002   0.00000
  66        3S          0.00021  -0.00021   0.00023  -0.00058  -0.00088
  67        3PX        -0.00028   0.00051  -0.00057   0.00078  -0.00036
  68        3PY         0.00006  -0.00001   0.00002   0.00011  -0.00015
  69        3PZ        -0.00022  -0.00002  -0.00009   0.00040   0.00032
  70        4XX         0.00002  -0.00002   0.00002  -0.00003  -0.00008
  71        4YY        -0.00000   0.00000  -0.00000   0.00000  -0.00001
  72        4ZZ        -0.00001   0.00001   0.00000   0.00000   0.00002
  73        4XY        -0.00000   0.00001  -0.00000  -0.00002  -0.00003
  74        4XZ         0.00000  -0.00000  -0.00000  -0.00001   0.00004
  75        4YZ        -0.00001   0.00001  -0.00000  -0.00000  -0.00000
  76 8   C  1S         -0.00001   0.00000  -0.00000   0.00000  -0.00001
  77        2S         -0.00003   0.00001  -0.00002   0.00002  -0.00001
  78        2PX         0.00001  -0.00001  -0.00000   0.00001  -0.00001
  79        2PY        -0.00001  -0.00000  -0.00000  -0.00000  -0.00001
  80        2PZ        -0.00001  -0.00000  -0.00000   0.00000   0.00002
  81        3S          0.00026  -0.00009   0.00026  -0.00044   0.00016
  82        3PX        -0.00007  -0.00006   0.00012  -0.00019   0.00022
  83        3PY         0.00005  -0.00001   0.00004  -0.00011   0.00011
  84        3PZ        -0.00011   0.00010  -0.00012   0.00021  -0.00023
  85        4XX        -0.00001   0.00001  -0.00000  -0.00001  -0.00003
  86        4YY        -0.00002   0.00001  -0.00001   0.00000  -0.00001
  87        4ZZ        -0.00000  -0.00001   0.00001  -0.00000  -0.00002
  88        4XY         0.00000  -0.00000   0.00000  -0.00000   0.00000
  89        4XZ        -0.00000   0.00001  -0.00001   0.00000  -0.00001
  90        4YZ        -0.00001   0.00000  -0.00000   0.00001  -0.00000
  91 9   C  1S          0.00000  -0.00000  -0.00000   0.00000   0.00004
  92        2S          0.00001   0.00000  -0.00001   0.00000   0.00034
  93        2PX         0.00000   0.00000   0.00000  -0.00001   0.00018
  94        2PY         0.00001  -0.00001   0.00000   0.00000   0.00003
  95        2PZ         0.00001  -0.00001  -0.00000   0.00000  -0.00001
  96        3S         -0.00015  -0.00009   0.00012  -0.00008   0.00032
  97        3PX         0.00003   0.00004   0.00002  -0.00014  -0.00062
  98        3PY        -0.00003   0.00009  -0.00008  -0.00001  -0.00025
  99        3PZ        -0.00003  -0.00009   0.00015  -0.00014   0.00050
 100        4XX        -0.00001   0.00001  -0.00001   0.00002  -0.00026
 101        4YY         0.00001  -0.00000  -0.00000   0.00001  -0.00002
 102        4ZZ         0.00001  -0.00001   0.00000  -0.00001   0.00005
 103        4XY        -0.00000   0.00000   0.00000   0.00000  -0.00002
 104        4XZ         0.00000  -0.00000   0.00000  -0.00000  -0.00008
 105        4YZ        -0.00000   0.00001  -0.00001   0.00000  -0.00004
 106 10  C  1S          0.00000   0.00000  -0.00000  -0.00000   0.00000
 107        2S         -0.00000   0.00001   0.00000  -0.00000   0.00006
 108        2PX        -0.00000  -0.00000   0.00001  -0.00001  -0.00000
 109        2PY         0.00001  -0.00000   0.00000   0.00000  -0.00001
 110        2PZ         0.00000  -0.00000   0.00000  -0.00000   0.00005
 111        3S         -0.00001   0.00002  -0.00013   0.00024  -0.00077
 112        3PX        -0.00001   0.00001   0.00004  -0.00007  -0.00014
 113        3PY        -0.00003  -0.00001   0.00000   0.00001  -0.00012
 114        3PZ         0.00001   0.00002   0.00004  -0.00007   0.00033
 115        4XX         0.00000  -0.00000  -0.00000   0.00001   0.00002
 116        4YY         0.00000   0.00000  -0.00000   0.00000  -0.00002
 117        4ZZ         0.00000  -0.00000  -0.00000   0.00000  -0.00010
 118        4XY         0.00000  -0.00000  -0.00000   0.00000   0.00001
 119        4XZ         0.00000  -0.00000  -0.00000   0.00000   0.00000
 120        4YZ         0.00000   0.00000  -0.00000   0.00000   0.00003
 121 11  H  1S         -0.00002   0.00001   0.00001  -0.00001   0.00002
 122        2S          0.00001  -0.00006   0.00003  -0.00008   0.00012
 123        3PX         0.00001  -0.00000  -0.00000   0.00000   0.00000
 124        3PY        -0.00000  -0.00000  -0.00000   0.00000   0.00000
 125        3PZ         0.00000  -0.00000   0.00000  -0.00000  -0.00000
 126 12  N  1S         -0.00000   0.00000  -0.00000  -0.00000   0.99275
 127        2S         -0.00002   0.00002  -0.00000  -0.00000   0.03465
 128        2PX         0.00000  -0.00000   0.00000  -0.00000  -0.00084
 129        2PY         0.00000  -0.00000  -0.00000  -0.00000  -0.00046
 130        2PZ        -0.00000   0.00000  -0.00000   0.00000   0.00110
 131        3S          0.00011  -0.00008  -0.00005   0.00013   0.00364
 132        3PX        -0.00004   0.00005  -0.00002  -0.00003   0.00037
 133        3PY        -0.00001  -0.00001   0.00002  -0.00000   0.00022
 134        3PZ         0.00003   0.00000  -0.00004   0.00002  -0.00054
 135        4XX        -0.00000   0.00000   0.00000  -0.00001  -0.00797
 136        4YY        -0.00001   0.00001  -0.00001   0.00000  -0.00815
 137        4ZZ        -0.00001   0.00001  -0.00000  -0.00000  -0.00803
 138        4XY         0.00000   0.00000  -0.00000  -0.00000   0.00001
 139        4XZ        -0.00000  -0.00000   0.00000  -0.00000   0.00011
 140        4YZ        -0.00000   0.00000  -0.00000   0.00000  -0.00003
 141 13  H  1S          0.00000  -0.00000   0.00000  -0.00001  -0.00001
 142        2S          0.00001  -0.00004   0.00008  -0.00006   0.00000
 143        3PX        -0.00000   0.00000   0.00000   0.00000  -0.00006
 144        3PY         0.00000  -0.00000   0.00000   0.00000   0.00000
 145        3PZ        -0.00000   0.00000   0.00000   0.00000  -0.00004
 146 14  C  1S         -0.00000   0.00000  -0.00000   0.00000   0.00004
 147        2S         -0.00000   0.00000  -0.00000   0.00001   0.00034
 148        2PX         0.00000  -0.00000   0.00000  -0.00000  -0.00004
 149        2PY         0.00000  -0.00000   0.00000   0.00000   0.00004
 150        2PZ         0.00000  -0.00000  -0.00000  -0.00000  -0.00018
 151        3S         -0.00000   0.00001   0.00007  -0.00009   0.00022
 152        3PX        -0.00000  -0.00001  -0.00004   0.00008  -0.00029
 153        3PY        -0.00001   0.00001  -0.00001   0.00001  -0.00023
 154        3PZ         0.00002   0.00000  -0.00002   0.00000   0.00061
 155        4XX         0.00000  -0.00000   0.00000  -0.00000   0.00000
 156        4YY        -0.00000   0.00000  -0.00000   0.00000  -0.00002
 157        4ZZ        -0.00000  -0.00000   0.00000  -0.00000  -0.00019
 158        4XY         0.00000  -0.00000   0.00000  -0.00000   0.00005
 159        4XZ        -0.00000  -0.00000  -0.00000   0.00000  -0.00016
 160        4YZ         0.00000  -0.00000  -0.00000   0.00000   0.00003
 161 15  H  1S         -0.00000  -0.00000  -0.00000  -0.00000   0.00003
 162        2S          0.00001  -0.00002  -0.00000   0.00001  -0.00004
 163        3PX        -0.00000   0.00000  -0.00000   0.00000  -0.00001
 164        3PY         0.00000  -0.00000  -0.00000   0.00000   0.00000
 165        3PZ         0.00000   0.00000  -0.00000   0.00000  -0.00002
 166 16  H  1S         -0.00000   0.00000   0.00000  -0.00000  -0.00001
 167        2S          0.00001  -0.00000   0.00001  -0.00003  -0.00001
 168        3PX        -0.00000   0.00000  -0.00000   0.00000   0.00006
 169        3PY         0.00000  -0.00000   0.00000   0.00000  -0.00000
 170        3PZ        -0.00000   0.00000   0.00000   0.00000   0.00005
 171 17  P  1S          0.00001   0.00001  -0.00000  -0.00000  -0.00000
 172        2S         -0.00005  -0.00009  -0.00003  -0.00001  -0.00000
 173        2PX         0.00001  -0.00000  -0.00001   0.00001   0.00000
 174        2PY        -0.00000   0.00000  -0.00000   0.00000   0.00000
 175        2PZ        -0.00002   0.00001  -0.00001  -0.00000   0.00000
 176        3S          0.00078   0.00062  -0.00008  -0.00007  -0.00001
 177        3PX        -0.00001  -0.00005   0.00006   0.00000  -0.00000
 178        3PY        -0.00002  -0.00001   0.00005  -0.00003  -0.00000
 179        3PZ         0.00017  -0.00020   0.00008   0.00003  -0.00000
 180        4S         -0.00361  -0.00256   0.00048  -0.00017   0.00004
 181        4PX         0.00009   0.00116  -0.00002   0.00014   0.00001
 182        4PY         0.00020  -0.00024  -0.00019   0.00005  -0.00001
 183        4PZ        -0.00209   0.00204  -0.00020  -0.00013   0.00002
 184        5XX        -0.00024  -0.00018  -0.00003   0.00004  -0.00000
 185        5YY        -0.00024  -0.00022  -0.00002  -0.00000  -0.00000
 186        5ZZ        -0.00008  -0.00016  -0.00004  -0.00003  -0.00000
 187        5XY         0.00002  -0.00003  -0.00000   0.00004  -0.00000
 188        5XZ        -0.00007   0.00010  -0.00000  -0.00002  -0.00000
 189        5YZ         0.00013  -0.00007  -0.00004  -0.00002  -0.00000
 190 18  P  1S         -0.00000  -0.00000   0.00002   0.00001  -0.00000
 191        2S         -0.00003  -0.00001  -0.00005  -0.00009  -0.00000
 192        2PX        -0.00000   0.00000  -0.00001   0.00000   0.00000
 193        2PY         0.00000  -0.00000  -0.00001  -0.00001   0.00000
 194        2PZ         0.00001   0.00000   0.00001  -0.00001  -0.00000
 195        3S         -0.00007  -0.00008   0.00085   0.00065  -0.00001
 196        3PX         0.00001   0.00001   0.00009  -0.00008  -0.00000
 197        3PY        -0.00005  -0.00001   0.00003   0.00010  -0.00000
 198        3PZ        -0.00006  -0.00001  -0.00018   0.00013  -0.00000
 199        4S          0.00060  -0.00039  -0.00355  -0.00275   0.00002
 200        4PX         0.00013  -0.00014  -0.00084   0.00124   0.00001
 201        4PY         0.00020  -0.00013   0.00051  -0.00136  -0.00001
 202        4PZ         0.00025   0.00021   0.00212  -0.00174  -0.00001
 203        5XX        -0.00001  -0.00002  -0.00027  -0.00018  -0.00000
 204        5YY        -0.00003   0.00003  -0.00023  -0.00018  -0.00000
 205        5ZZ        -0.00005  -0.00004  -0.00005  -0.00024   0.00000
 206        5XY         0.00001   0.00000   0.00004  -0.00008   0.00000
 207        5XZ        -0.00002  -0.00000   0.00000  -0.00009   0.00000
 208        5YZ        -0.00001  -0.00005   0.00003   0.00006   0.00000
 209 19  O  1S          0.99273   0.00040   0.00001  -0.00004   0.00000
 210        2S          0.02560   0.00003  -0.00000  -0.00008   0.00000
 211        2PX         0.00014   0.00007  -0.00002   0.00002   0.00000
 212        2PY        -0.00020  -0.00001  -0.00001   0.00001   0.00000
 213        2PZ        -0.00066   0.00001  -0.00001   0.00001  -0.00000
 214        3S          0.01270  -0.00018   0.00001   0.00036  -0.00002
 215        3PX         0.00018  -0.00030   0.00005  -0.00007  -0.00000
 216        3PY        -0.00036   0.00005   0.00001  -0.00005   0.00000
 217        3PZ        -0.00043  -0.00025   0.00004  -0.00009   0.00000
 218        4XX        -0.00817   0.00000  -0.00000  -0.00005   0.00000
 219        4YY        -0.00816   0.00003   0.00001  -0.00007   0.00000
 220        4ZZ        -0.00818   0.00009   0.00000  -0.00005   0.00000
 221        4XY        -0.00001   0.00002  -0.00001   0.00002  -0.00000
 222        4XZ        -0.00000   0.00001  -0.00000   0.00000  -0.00000
 223        4YZ        -0.00000   0.00001  -0.00001   0.00001  -0.00000
 224 20  O  1S          0.00002  -0.00005   0.00002   0.00000  -0.00000
 225        2S         -0.00007  -0.00011   0.00004   0.00000  -0.00000
 226        2PX         0.00001  -0.00003  -0.00001   0.00000   0.00000
 227        2PY        -0.00000  -0.00000  -0.00001   0.00001  -0.00000
 228        2PZ        -0.00003   0.00003  -0.00001  -0.00001  -0.00000
 229        3S          0.00039   0.00074  -0.00022  -0.00002   0.00003
 230        3PX        -0.00025  -0.00010   0.00007   0.00002   0.00001
 231        3PY        -0.00003  -0.00001   0.00005  -0.00003   0.00000
 232        3PZ         0.00023  -0.00023   0.00005   0.00003   0.00001
 233        4XX         0.00000  -0.00014   0.00004  -0.00001  -0.00000
 234        4YY        -0.00000  -0.00007   0.00004   0.00000  -0.00000
 235        4ZZ        -0.00006  -0.00013   0.00005   0.00000  -0.00000
 236        4XY         0.00001   0.00002  -0.00000  -0.00000  -0.00000
 237        4XZ        -0.00001  -0.00004   0.00000   0.00001   0.00000
 238        4YZ        -0.00002   0.00003  -0.00000  -0.00001  -0.00000
 239 21  O  1S         -0.00039   0.99274  -0.00012  -0.00010  -0.00000
 240        2S         -0.00004   0.02564  -0.00004  -0.00010  -0.00000
 241        2PX         0.00004   0.00043   0.00002   0.00003  -0.00000
 242        2PY        -0.00002  -0.00021   0.00004   0.00003  -0.00000
 243        2PZ        -0.00004   0.00060   0.00000  -0.00002   0.00000
 244        3S          0.00015   0.01252   0.00009   0.00043   0.00001
 245        3PX        -0.00008   0.00024  -0.00008  -0.00009   0.00000
 246        3PY         0.00002  -0.00030  -0.00013  -0.00013   0.00000
 247        3PZ         0.00042   0.00032   0.00001   0.00013  -0.00000
 248        4XX        -0.00000  -0.00813  -0.00006  -0.00008  -0.00000
 249        4YY        -0.00000  -0.00813  -0.00002  -0.00008  -0.00000
 250        4ZZ         0.00006  -0.00814  -0.00005  -0.00008  -0.00000
 251        4XY         0.00002  -0.00001   0.00001   0.00002   0.00000
 252        4XZ         0.00004  -0.00000   0.00002   0.00000  -0.00000
 253        4YZ        -0.00003  -0.00001  -0.00001  -0.00002  -0.00000
 254 22  O  1S          0.00002   0.00005  -0.00150   0.99273  -0.00000
 255        2S         -0.00001  -0.00010   0.00000   0.02558  -0.00000
 256        2PX        -0.00002  -0.00002   0.00003   0.00049   0.00000
 257        2PY        -0.00003  -0.00004  -0.00002  -0.00038   0.00000
 258        2PZ         0.00000   0.00002   0.00005  -0.00036   0.00000
 259        3S         -0.00004   0.00043  -0.00023   0.01278   0.00001
 260        3PX         0.00005   0.00014   0.00001   0.00052  -0.00000
 261        3PY         0.00012   0.00012  -0.00001  -0.00024  -0.00000
 262        3PZ        -0.00000  -0.00012  -0.00038  -0.00013  -0.00000
 263        4XX        -0.00001  -0.00008   0.00007  -0.00816  -0.00000
 264        4YY        -0.00002  -0.00007   0.00009  -0.00817  -0.00000
 265        4ZZ        -0.00004  -0.00009   0.00008  -0.00819  -0.00000
 266        4XY         0.00002   0.00001  -0.00000  -0.00001  -0.00000
 267        4XZ        -0.00001  -0.00003  -0.00005   0.00000  -0.00000
 268        4YZ         0.00001  -0.00000   0.00002  -0.00001  -0.00000
 269 23  O  1S          0.00001  -0.00001  -0.00007   0.00003   0.00000
 270        2S          0.00003  -0.00002  -0.00019  -0.00003   0.00000
 271        2PX        -0.00000  -0.00001  -0.00003   0.00004  -0.00000
 272        2PY         0.00001  -0.00001   0.00002  -0.00002  -0.00000
[...]
  11         O               -10.215574         15.880854
  12         O               -10.214554         15.891341
  13         O               -10.213713         15.880905
  14         O               -10.196819         15.881126
  15         O               -10.194266         15.880693
  16         O               -10.191382         15.881411
  17         O               -10.181434         15.885578
  18         O                -6.602351         15.694523
  19         O                -6.589152         15.694754
  20         O                -4.767266         14.709167
  21         O                -4.764570         14.713174
  22         O                -4.764196         14.703498
  23         O                -4.754108         14.710946
  24         O                -4.751388         14.709638
  25         O                -4.750877         14.705639
  26         O                -1.015575          2.417630
  27         O                -1.001947          2.553964
  28         O                -0.983930          2.629315
  29         O                -0.933555          1.841612
  30         O                -0.927351          2.766004
  31         O                -0.916154          2.772280
  32         O                -0.890060          2.889233
  33         O                -0.875982          2.892085
  34         O                -0.805938          1.654760
  35         O                -0.768514          1.612822
  36         O                -0.717676          1.658800
  37         O                -0.631092          1.736756
  38         O                -0.620796          1.540597
  39         O                -0.582100          1.684684
  40         O                -0.546066          2.123906
  41         O                -0.516770          2.089928
  42         O                -0.509729          1.102133
  43         O                -0.500062          1.670172
  44         O                -0.478556          1.551347
  45         O                -0.464789          1.633311
  46         O                -0.446807          1.451387
  47         O                -0.425076          1.758102
  48         O                -0.410506          1.529246
  49         O                -0.409013          1.914600
  50         O                -0.391418          1.381076
  51         O                -0.383502          1.694562
  52         O                -0.378605          1.515730
  53         O                -0.377338          1.904438
  54         O                -0.369137          2.127507
  55         O                -0.357096          1.915711
  56         O                -0.350499          2.100459
  57         O                -0.343325          1.733113
  58         O                -0.332408          2.362397
  59         O                -0.328138          2.348226
  60         O                -0.301147          2.082099
  61         O                -0.299537          2.184375
  62         O                -0.282882          2.143891
  63         O                -0.276497          1.448979
  64         O                -0.274236          1.971302
  65         O                -0.262877          2.110735
  66         O                -0.255747          1.899582
  67         O                -0.252838          1.925372
  68         O                -0.245441          1.910136
  69         O                -0.239176          1.858044
  70         O                -0.233926          2.280263
  71         O                -0.230082          2.194783
  72         O                -0.217423          2.326340
  73         O                -0.211399          2.211838
  74         V                -0.018158          1.550154
  75         V                -0.003391          1.422586
  76         V                 0.085490          1.639336
  77         V                 0.103619          1.644736
  78         V                 0.115329          1.616455
  79         V                 0.119828          1.489173
  80         V                 0.125721          1.589647
  81         V                 0.139078          1.236280
  82         V                 0.144702          1.742516
  83         V                 0.163524          1.867860
  84         V                 0.171186          1.652686
  85         V                 0.178361          2.162779
  86         V                 0.180006          1.755898
  87         V                 0.192602          1.406947
  88         V                 0.199542          1.547811
  89         V                 0.204646          2.324941
  90         V                 0.211432          1.568769
  91         V                 0.220225          2.077816
  92         V                 0.225102          1.917118
  93         V                 0.250902          1.746858
  94         V                 0.273142          2.378136
  95         V                 0.279929          2.056179
  96         V                 0.280904          2.491690
  97         V                 0.289036          1.707859
  98         V                 0.323530          1.785176
  99         V                 0.344630          2.014269
 100         V                 0.353045          2.377759
 101         V                 0.368035          2.328454
 102         V                 0.377620          2.109487
 103         V                 0.403991          2.277202
 104         V                 0.419588          2.552195
 105         V                 0.431618          1.972193
 106         V                 0.446168          1.883961
 107         V                 0.453127          1.989932
 108         V                 0.467333          2.416190
 109         V                 0.486480          2.275794
 110         V                 0.495314          2.359080
 111         V                 0.531141          2.107262
 112         V                 0.565298          2.239102
 113         V                 0.576586          2.204500
 114         V                 0.582620          2.361365
 115         V                 0.590949          2.222818
 116         V                 0.599116          2.301345
 117         V                 0.602403          2.419395
 118         V                 0.607991          1.847938
 119         V                 0.618630          2.164484
 120         V                 0.627162          2.253732
 121         V                 0.639959          2.637300
 122         V                 0.650506          2.729730
 123         V                 0.669106          2.617694
 124         V                 0.681483          2.335369
 125         V                 0.692632          2.415314
 126         V                 0.710224          2.364086
 127         V                 0.730254          2.278663
 128         V                 0.762001          2.467670
 129         V                 0.772460          2.647762
 130         V                 0.785558          2.561492
 131         V                 0.803025          2.678232
 132         V                 0.811687          2.571594
 133         V                 0.815680          2.729413
 134         V                 0.826966          2.542791
 135         V                 0.833342          2.524130
 136         V                 0.843736          2.586841
 137         V                 0.845217          2.524904
 138         V                 0.855868          2.559647
 139         V                 0.862785          2.218405
 140         V                 0.876347          2.593981
 141         V                 0.880925          2.522109
 142         V                 0.895507          2.577410
 143         V                 0.913649          2.559273
 144         V                 0.928734          2.621103
 145         V                 0.934738          2.706709
 146         V                 0.940986          2.670691
 147         V                 0.962895          2.814698
 148         V                 0.982353          2.913533
 149         V                 0.982986          2.567901
 150         V                 0.986016          2.820217
 151         V                 1.005748          2.863167
 152         V                 1.029532          2.977422
 153         V                 1.037881          3.000249
 154         V                 1.045750          3.094881
 155         V                 1.059278          2.715313
 156         V                 1.074030          3.224599
 157         V                 1.076509          2.815344
 158         V                 1.080111          3.093357
 159         V                 1.083866          3.274067
 160         V                 1.093968          3.117802
 161         V                 1.099344          3.101426
 162         V                 1.110739          3.021755
 163         V                 1.121082          3.050537
 164         V                 1.128356          3.002566
 165         V                 1.156392          3.012456
 166         V                 1.159056          3.098782
 167         V                 1.175016          3.095195
 168         V                 1.190772          2.785424
 169         V                 1.198813          3.515315
 170         V                 1.210178          3.418420
 171         V                 1.228695          3.338459
 172         V                 1.236479          3.478063
 173         V                 1.258644          3.471006
 174         V                 1.267437          2.727396
 175         V                 1.284890          3.194682
 176         V                 1.288329          3.608623
 177         V                 1.313017          3.357228
 178         V                 1.332756          2.845050
 179         V                 1.351619          2.555466
 180         V                 1.363472          2.941472
 181         V                 1.378126          2.585060
 182         V                 1.406961          2.610276
 183         V                 1.418346          2.700702
 184         V                 1.421230          2.600477
 185         V                 1.446912          2.603913
 186         V                 1.469310          2.773375
 187         V                 1.479134          2.621470
 188         V                 1.481120          2.676245
 189         V                 1.523897          2.729260
 190         V                 1.550099          2.845635
 191         V                 1.563599          2.769061
 192         V                 1.578149          2.782896
 193         V                 1.597970          2.741870
 194         V                 1.631741          2.751317
 195         V                 1.641034          2.714017
 196         V                 1.666332          2.870614
 197         V                 1.690175          2.798961
 198         V                 1.713283          2.807039
 199         V                 1.745500          2.905150
 200         V                 1.752088          2.923267
 201         V                 1.771233          2.996794
 202         V                 1.776604          2.902376
 203         V                 1.791585          3.030976
 204         V                 1.801184          3.067359
 205         V                 1.830279          3.098984
 206         V                 1.834706          3.058229
 207         V                 1.842585          3.057064
 208         V                 1.858011          2.875783
 209         V                 1.865083          3.108725
 210         V                 1.871032          3.019540
 211         V                 1.879961          2.945161
 212         V                 1.894507          2.952559
 213         V                 1.900213          3.055640
 214         V                 1.910275          3.182142
 215         V                 1.912225          3.054117
 216         V                 1.920412          3.163368
 217         V                 1.936401          3.101465
 218         V                 1.948523          3.093062
 219         V                 1.951337          3.210163
 220         V                 1.976482          3.156830
 221         V                 1.982778          3.084049
 222         V                 2.003674          3.294524
 223         V                 2.014971          3.292492
 224         V                 2.038863          3.330567
 225         V                 2.052718          3.464151
 226         V                 2.061620          3.566868
 227         V                 2.093586          3.482073
 228         V                 2.109437          3.338258
 229         V                 2.113414          3.398761
 230         V                 2.127530          3.363069
 231         V                 2.135475          3.422760
 232         V                 2.138823          3.348285
 233         V                 2.152733          3.359733
 234         V                 2.200269          3.462119
 235         V                 2.235099          3.491490
 236         V                 2.237120          3.576189
 237         V                 2.258530          3.535499
 238         V                 2.287353          3.468519
 239         V                 2.302658          3.508775
 240         V                 2.322031          3.506267
 241         V                 2.322980          3.576225
 242         V                 2.335249          3.583288
 243         V                 2.348546          3.549709
 244         V                 2.373564          3.757671
 245         V                 2.381028          3.753282
 246         V                 2.390985          3.650319
 247         V                 2.399114          3.383702
 248         V                 2.418361          3.727534
 249         V                 2.434398          3.751687
 250         V                 2.461271          3.898943
 251         V                 2.480127          3.906571
 252         V                 2.504133          3.978311
 253         V                 2.518093          3.615769
 254         V                 2.528060          4.190461
 255         V                 2.541403          3.755983
 256         V                 2.555203          4.466454
 257         V                 2.567459          4.078366
 258         V                 2.604228          3.778107
 259         V                 2.623409          3.958050
 260         V                 2.647248          3.936199
 261         V                 2.667949          3.748013
 262         V                 2.676614          3.717461
 263         V                 2.682853          3.876330
 264         V                 2.689618          3.890166
 265         V                 2.707146          3.729302
 266         V                 2.721963          3.945248
 267         V                 2.746960          3.854793
 268         V                 2.766851          4.108734
 269         V                 2.771978          4.118357
 270         V                 2.797834          4.301750
 271         V                 2.820017          4.463664
 272         V                 2.842276          4.499216
 273         V                 2.866948          4.491607
 274         V                 2.872676          4.740903
 275         V                 2.886035          4.479718
 276         V                 2.890121          4.377705
 277         V                 2.964889          4.303052
 278         V                 3.000341          4.510389
 279         V                 3.012112          4.672417
 280         V                 3.087031          4.626498
 281         V                 3.190194          5.074835
 282         V                 3.244389          4.904196
 283         V                 3.274931          4.970641
 284         V                 3.336187          5.111089
 285         V                 3.403155          5.357916
 286         V                 3.426156          6.173622
 287         V                 3.452448          6.235526
 288         V                 3.460497          5.411932
 289         V                 3.501333          5.445508
 290         V                 3.515724          6.666109
 291         V                 3.557358          9.532074
 292         V                 3.612841         10.164964
 293         V                 3.802120          6.215763
 294         V                 3.829321          9.898485
 295         V                 3.887949          9.741117
 296         V                 3.989320         10.301590
 297         V                 4.000469         10.330023
 298         V                 4.085263         10.506536
 299         V                 4.121508         10.098711
 300         V                 4.151329         10.589315
 301         V                 4.201900         10.378818
 302         V                 4.211321         10.254629
 303         V                 4.256334         10.483089
 304         V                 4.340428         10.060369
 305         V                 4.400482         10.267962
 306         V                 4.491001         10.235709
 307         V                 4.666238         10.551591
 308         V                 4.771266         10.162643
 Total kinetic energy from orbitals= 1.526350024246D+03

 Test job not archived.
 1\1\GINC-BATAGIN1\SP\RB3LYP\6-31G(d,p)\C7H9N1O7P2(2-)\ORISON\08-Feb-20
 21\0\\#t B3LYP/6-31G(d,p) scrf=(solvent=water) # Gfinput IOP(6/7=3) Po
 p=hirshfeld Density Test # Units(Ang,Deg)\\ris-2dp-opt-g09.log\\-2,1\C
 ,0,0.36357,-0.92033,-0.64314\H,0,0.18188,-0.70091,-1.69854\H,0,0.16193
 ,-1.99148,-0.51695\C,0,-0.71427,-0.18219,0.18284\O,0,-0.52255,-0.49658
 ,1.58853\H,0,-0.79082,0.3383,2.0337\C,0,1.823,-0.68354,-0.31968\C,0,2.
 38329,-0.95693,0.93585\C,0,2.70696,-0.24245,-1.31596\C,0,3.75097,-0.76
 539,1.13351\H,0,1.74694,-1.3028,1.74186\N,0,4.02364,-0.06201,-1.15017\
 H,0,2.31724,-0.02155,-2.30926\C,0,4.52883,-0.32094,0.06592\H,0,4.20887
 ,-0.96572,2.09722\H,0,5.5999,-0.16959,0.18799\P,0,-0.72368,1.69568,0.0
 7096\P,0,-2.40219,-0.90065,-0.26298\O,0,-1.02378,2.12523,1.50421\O,0,0
 .84517,2.12496,-0.28517\O,0,-1.52841,2.19631,-1.10112\O,0,-3.49157,-0.
 13186,0.45571\O,0,-2.1904,-2.37593,0.50202\O,0,-2.51862,-1.19182,-1.74
 392\H,0,1.43186,1.91223,0.45474\H,0,-1.74798,-2.16161,1.34264\\Version
 =EM64L-G16RevA.03\State=1-A\HF=-1536.6393396\RMSD=4.801e-09\Dipole=7.6
 197058,-2.2637822,2.408636\Quadrupole=-20.9989113,2.9563308,18.0425805
 ,-1.2460841,2.3258103,-3.2628691\PG=C01 [X(C7H9N1O7P2)]\\@


 EXPERIMENTALISTS THINK SILICON IS REALLY FUN TO USE
     ITS PLACE IN NOVEL COMPOUNDS IS CERTAIN TO AMUSE
 THEY SIT ALL DAY IN LABORATORIES MAKING ALL THIS SLUDGE
     "LOADED WITH THE SILICON THEY SAY", TO ME IT LOOKS LIKE FUDGE.
 FOR HAPPY THOUGH THEY BE WITH CRUD, I'D LIKE TO KNOW A LITTLE
      ABOUT THE PI BONDS ON THE EDGE AND SIGMAS IN THE MIDDLE.

 SO LETS DERIVE A WAVEFUNCTION.....6-31G*
     USE AN OPTIMAL GEOMETRY AND SEE WHERE ELECTRONS ARE.
 BUT WHAT OF CORRELATION?  ASKS THE WIRY LITTLE SKEPTIC.
     WE'LL THROW IN PERTURBATION AS AN ELECTRON ANTISEPTIC.
 AND WHEN THE PROGRAM GIVES US ANSWERS IN THEM WE CAN TRUST
     SINCE NOBODY CAN MAKE THE STUFF, WE HAVE NO CHOICE, WE MUST.

 SO THEORY GUYS HAVE GOT IT MADE, IN ROOMS FREE OF POLLUTION.
     INSTEAD OF PROBLEMS WITH THE REFLUX, THEY HAVE ONLY SOLUTIONS.
 AND WHEN THE FEDS ANNOUNCE THE LIST OF CARCINOGENIC TERRORS,
     THE THEORISTS SIT SAFELY AT THEIR TERMINALS FIXING ERRORS.
 IN OTHER WORDS, EXPERIMENTALISTS WILL LIKELY DIE OF CANCER
     FROM WORKING HARD YET FRUITLESSLY...TILL THEORY GIVES THE ANSWER.
          -- THOMAS A. HOLME, 1983
 Job cpu time:       0 days  0 hours 12 minutes  3.4 seconds.
 Elapsed time:       0 days  0 hours  1 minutes 31.0 seconds.
 File lengths (MBytes):  RWF=    137 Int=      0 D2E=      0 Chk=      7 Scr=      1
 Normal termination of Gaussian 16 at Mon Feb  8 14:53:33 2021.
