 Entering Gaussian System, Link 0=g16
 Input=e-3-tio2-p_neutral_scf_g09.com
 Output=e-3-tio2-p_neutral_scf_g09.log
 Initial command:
 /home/rheinheimer/Apps//g16/l1.exe "/home/rheinheimer/Apps/scrgauss/Gau-941563.inp" -scrdir="/home/rheinheimer/Apps/scrgauss/"
 Entering Link 1 = /home/rheinheimer/Apps//g16/l1.exe PID=    941565.
  
 Copyright (c) 1988,1990,1992,1993,1995,1998,2003,2009,2016,
            Gaussian, Inc.  All Rights Reserved.
  
 This is part of the Gaussian(R) 16 program.  It is based on
 the Gaussian(R) 09 system (copyright 2009, Gaussian, Inc.),
 the Gaussian(R) 03 system (copyright 2003, Gaussian, Inc.),
 the Gaussian(R) 98 system (copyright 1998, Gaussian, Inc.),
 the Gaussian(R) 94 system (copyright 1995, Gaussian, Inc.),
 the Gaussian 92(TM) system (copyright 1992, Gaussian, Inc.),
 the Gaussian 90(TM) system (copyright 1990, Gaussian, Inc.),
 the Gaussian 88(TM) system (copyright 1988, Gaussian, Inc.),
 the Gaussian 86(TM) system (copyright 1986, Carnegie Mellon
 University), and the Gaussian 82(TM) system (copyright 1983,
 Carnegie Mellon University). Gaussian is a federally registered
 trademark of Gaussian, Inc.
  
 This software contains proprietary and confidential information,
 including trade secrets, belonging to Gaussian, Inc.
  
 This software is provided under written license and may be
 used, copied, transmitted, or stored only in accord with that
 written license.
  
 The following legend is applicable only to US Government
 contracts under FAR:
  
                    RESTRICTED RIGHTS LEGEND
  
 Use, reproduction and disclosure by the US Government is
 subject to restrictions as set forth in subparagraphs (a)
 and (c) of the Commercial Computer Software - Restricted
 Rights clause in FAR 52.227-19.
  
 Gaussian, Inc.
 340 Quinnipiac St., Bldg. 40, Wallingford CT 06492
  
  
 ---------------------------------------------------------------
 Warning -- This program may not be used in any manner that
 competes with the business of Gaussian, Inc. or will provide
 assistance to any competitor of Gaussian, Inc.  The licensee
 of this program is prohibited from giving any competitor of
 Gaussian, Inc. access to this program.  By using this program,
 the user acknowledges that Gaussian, Inc. is engaged in the
 business of creating and licensing software in the field of
 computational chemistry and represents and warrants to the
 licensee that it is not a competitor of Gaussian, Inc. and that
 it will not use this program in any manner prohibited above.
 ---------------------------------------------------------------
  

 Cite this work as:
 Gaussian 16, Revision A.03,
 M. J. Frisch, G. W. Trucks, H. B. Schlegel, G. E. Scuseria, 
 M. A. Robb, J. R. Cheeseman, G. Scalmani, V. Barone, 
 G. A. Petersson, H. Nakatsuji, X. Li, M. Caricato, A. V. Marenich, 
 J. Bloino, B. G. Janesko, R. Gomperts, B. Mennucci, H. P. Hratchian, 
 J. V. Ortiz, A. F. Izmaylov, J. L. Sonnenberg, D. Williams-Young, 
 F. Ding, F. Lipparini, F. Egidi, J. Goings, B. Peng, A. Petrone, 
 T. Henderson, D. Ranasinghe, V. G. Zakrzewski, J. Gao, N. Rega, 
 G. Zheng, W. Liang, M. Hada, M. Ehara, K. Toyota, R. Fukuda, 
 J. Hasegawa, M. Ishida, T. Nakajima, Y. Honda, O. Kitao, H. Nakai, 
 T. Vreven, K. Throssell, J. A. Montgomery, Jr., J. E. Peralta, 
 F. Ogliaro, M. J. Bearpark, J. J. Heyd, E. N. Brothers, K. N. Kudin, 
 V. N. Staroverov, T. A. Keith, R. Kobayashi, J. Normand, 
 K. Raghavachari, A. P. Rendell, J. C. Burant, S. S. Iyengar, 
 J. Tomasi, M. Cossi, J. M. Millam, M. Klene, C. Adamo, R. Cammi, 
 J. W. Ochterski, R. L. Martin, K. Morokuma, O. Farkas, 
 J. B. Foresman, and D. J. Fox, Gaussian, Inc., Wallingford CT, 2016.
 
 ******************************************
 Gaussian 16:  ES64L-G16RevA.03 25-Dec-2016
                 7-Jun-2021 
 ******************************************
 %nproc=8
 Will use up to    8 processors via shared memory.
 %Mem=4GB
 ----------------------------------------------------------------------
 #t B3LYP/LANL2DZ # SCRF=(Solvent=Ethanol) # Gfinput IOP(6/7=3) Pop=hir
 shfeld Density Test # Units(Ang,Deg)
 ----------------------------------------------------------------------
 ----------
 3-tio2.pdb
 ----------
 Symbolic Z-matrix:
 Charge =  0 Multiplicity = 1
 Ti                    0.3241   -0.00001   0.0514 
 Ti                    3.06784  -0.00001  -0.37437 
 O                     1.6575   -1.23235  -0.15865 
 O                     1.65749   1.23234  -0.15862 
 O                    -1.10839   0.00003   1.27492 
 O                    -1.03497  -0.00001  -1.18611 
 O                     3.93824   0.00001   1.02867 
 Ti                   -2.45178   0.00001   0.02778 
 O                    -3.36066  -1.53041   0.00496 
 H                    -3.89599  -2.3362    0.00702 
 O                    -3.36086   1.53028   0.0048 
 H                    -3.89444   2.33722   0.00749 
 
                    Distance matrix (angstroms):
                    1          2          3          4          5
     1  Ti   0.000000
     2  Ti   2.776579   0.000000
     3  O    1.827769   1.885273   0.000000
     4  O    1.827765   1.885291   2.464690   0.000000
     5  O    1.883887   4.490106   3.350228   3.350182   0.000000
     6  O    1.838070   4.182340   3.134283   3.134288   2.462125
     7  O    3.743937   1.651096   2.851353   2.851336   5.052634
     8  Ti   2.775980   5.534251   4.294141   4.294122   1.833045
     9  O    3.990205   6.619035   5.029666   5.730740   3.004624
    10  H    4.823786   7.355146   5.664555   6.603261   3.851786
    11  O    3.990350   6.619195   5.730862   5.029842   3.004745
    12  H    4.822930   7.354033   6.602535   5.663239   3.851092
                    6          7          8          9         10
     6  O    0.000000
     7  O    5.444086   0.000000
     8  Ti   1.865712   6.467931   0.000000
     9  O    3.028136   7.527557   1.780104   0.000000
    10  H    3.881595   8.238738   2.746644   0.967409   0.000000
    11  O    3.028171   7.527742   1.780079   3.060690   3.903337
    12  H    3.881223   8.237490   2.746676   3.904291   4.673420
                   11         12
    11  O    0.000000
    12  H    0.967402   0.000000
 Framework group  C1[X(H2O7Ti3)]
 Deg. of freedom    30
                         Standard orientation:                         
 ---------------------------------------------------------------------
 Center     Atomic      Atomic             Coordinates (Angstroms)
 Number     Number       Type             X           Y           Z
 ---------------------------------------------------------------------
      1         22           0        0.324101   -0.000009    0.051399
      2         22           0        3.067841   -0.000006   -0.374371
      3          8           0        1.657502   -1.232348   -0.158651
      4          8           0        1.657490    1.232342   -0.158621
      5          8           0       -1.108389    0.000029    1.274919
      6          8           0       -1.034969   -0.000010   -1.186111
      7          8           0        3.938241    0.000015    1.028669
      8         22           0       -2.451779    0.000008    0.027779
      9          8           0       -3.360658   -1.530413    0.004959
     10          1           0       -3.895987   -2.336203    0.007019
     11          8           0       -3.360861    1.530277    0.004799
     12          1           0       -3.894442    2.337217    0.007489
 ---------------------------------------------------------------------
 Rotational constants (GHZ):           2.4343629           0.3195007           0.3075599
 AO basis set in the form of general basis input (Overlap normalization):
      1 0
 S   3 1.00       0.000000000000
      0.1098000000D+01 -0.1023676994D+00
      0.4178000000D+00 -0.3753172148D+00
      0.8720000000D-01  0.1215423149D+01
 S   3 1.00       0.000000000000
      0.4372000000D+01 -0.3637098367D+00
      0.1098000000D+01  0.8184533826D+00
      0.4178000000D+00  0.4184526423D+00
 S   1 1.00       0.000000000000
      0.3140000000D-01  0.1000000000D+01
 P   3 1.00       0.000000000000
      0.1252000000D+02 -0.4569080054D-01
      0.1491000000D+01  0.6203313074D+00
      0.4859000000D+00  0.4765329057D+00
 P   1 1.00       0.000000000000
      0.5300000000D-01  0.1000000000D+01
 P   1 1.00       0.000000000000
      0.1600000000D-01  0.1000000000D+01
 D   4 1.00       0.000000000000
      0.2021000000D+02  0.3416819898D-01
      0.5495000000D+01  0.1710005949D+00
      0.1699000000D+01  0.4405848869D+00
      0.4840000000D+00  0.6114245818D+00
 D   1 1.00       0.000000000000
      0.1157000000D+00  0.1000000000D+01
 ****
      2 0
 S   3 1.00       0.000000000000
      0.1098000000D+01 -0.1023676994D+00
      0.4178000000D+00 -0.3753172148D+00
      0.8720000000D-01  0.1215423149D+01
 S   3 1.00       0.000000000000
      0.4372000000D+01 -0.3637098367D+00
      0.1098000000D+01  0.8184533826D+00
      0.4178000000D+00  0.4184526423D+00
 S   1 1.00       0.000000000000
      0.3140000000D-01  0.1000000000D+01
 P   3 1.00       0.000000000000
      0.1252000000D+02 -0.4569080054D-01
      0.1491000000D+01  0.6203313074D+00
      0.4859000000D+00  0.4765329057D+00
 P   1 1.00       0.000000000000
      0.5300000000D-01  0.1000000000D+01
 P   1 1.00       0.000000000000
      0.1600000000D-01  0.1000000000D+01
 D   4 1.00       0.000000000000
      0.2021000000D+02  0.3416819898D-01
      0.5495000000D+01  0.1710005949D+00
      0.1699000000D+01  0.4405848869D+00
      0.4840000000D+00  0.6114245818D+00
 D   1 1.00       0.000000000000
      0.1157000000D+00  0.1000000000D+01
 ****
      3 0
 S   7 1.00       0.000000000000
      0.7817000000D+04  0.1176000331D-02
      0.1176000000D+04  0.8968002523D-02
      0.2732000000D+03  0.4286801206D-01
      0.8117000000D+02  0.1439300405D+00
      0.2718000000D+02  0.3556301000D+00
      0.9532000000D+01  0.4612481297D+00
      0.3414000000D+01  0.1402060394D+00
 S   2 1.00       0.000000000000
      0.9532000000D+01 -0.1541530739D+00
      0.9398000000D+00  0.1056914507D+01
 S   1 1.00       0.000000000000
      0.2846000000D+00  0.1000000000D+01
 P   4 1.00       0.000000000000
      0.3518000000D+02  0.1958000050D-01
      0.7904000000D+01  0.1242000032D+00
      0.2305000000D+01  0.3947140101D+00
      0.7171000000D+00  0.6273760161D+00
 P   1 1.00       0.000000000000
      0.2137000000D+00  0.1000000000D+01
 ****
      4 0
 S   7 1.00       0.000000000000
      0.7817000000D+04  0.1176000331D-02
      0.1176000000D+04  0.8968002523D-02
      0.2732000000D+03  0.4286801206D-01
      0.8117000000D+02  0.1439300405D+00
      0.2718000000D+02  0.3556301000D+00
      0.9532000000D+01  0.4612481297D+00
      0.3414000000D+01  0.1402060394D+00
 S   2 1.00       0.000000000000
      0.9532000000D+01 -0.1541530739D+00
      0.9398000000D+00  0.1056914507D+01
 S   1 1.00       0.000000000000
      0.2846000000D+00  0.1000000000D+01
 P   4 1.00       0.000000000000
      0.3518000000D+02  0.1958000050D-01
      0.7904000000D+01  0.1242000032D+00
      0.2305000000D+01  0.3947140101D+00
      0.7171000000D+00  0.6273760161D+00
 P   1 1.00       0.000000000000
      0.2137000000D+00  0.1000000000D+01
 ****
      5 0
 S   7 1.00       0.000000000000
      0.7817000000D+04  0.1176000331D-02
      0.1176000000D+04  0.8968002523D-02
      0.2732000000D+03  0.4286801206D-01
      0.8117000000D+02  0.1439300405D+00
      0.2718000000D+02  0.3556301000D+00
      0.9532000000D+01  0.4612481297D+00
      0.3414000000D+01  0.1402060394D+00
 S   2 1.00       0.000000000000
      0.9532000000D+01 -0.1541530739D+00
      0.9398000000D+00  0.1056914507D+01
 S   1 1.00       0.000000000000
      0.2846000000D+00  0.1000000000D+01
 P   4 1.00       0.000000000000
      0.3518000000D+02  0.1958000050D-01
      0.7904000000D+01  0.1242000032D+00
      0.2305000000D+01  0.3947140101D+00
      0.7171000000D+00  0.6273760161D+00
 P   1 1.00       0.000000000000
      0.2137000000D+00  0.1000000000D+01
 ****
      6 0
 S   7 1.00       0.000000000000
      0.7817000000D+04  0.1176000331D-02
      0.1176000000D+04  0.8968002523D-02
      0.2732000000D+03  0.4286801206D-01
      0.8117000000D+02  0.1439300405D+00
      0.2718000000D+02  0.3556301000D+00
      0.9532000000D+01  0.4612481297D+00
      0.3414000000D+01  0.1402060394D+00
 S   2 1.00       0.000000000000
      0.9532000000D+01 -0.1541530739D+00
      0.9398000000D+00  0.1056914507D+01
 S   1 1.00       0.000000000000
      0.2846000000D+00  0.1000000000D+01
 P   4 1.00       0.000000000000
      0.3518000000D+02  0.1958000050D-01
      0.7904000000D+01  0.1242000032D+00
      0.2305000000D+01  0.3947140101D+00
      0.7171000000D+00  0.6273760161D+00
 P   1 1.00       0.000000000000
      0.2137000000D+00  0.1000000000D+01
 ****
      7 0
 S   7 1.00       0.000000000000
      0.7817000000D+04  0.1176000331D-02
      0.1176000000D+04  0.8968002523D-02
      0.2732000000D+03  0.4286801206D-01
      0.8117000000D+02  0.1439300405D+00
      0.2718000000D+02  0.3556301000D+00
      0.9532000000D+01  0.4612481297D+00
      0.3414000000D+01  0.1402060394D+00
 S   2 1.00       0.000000000000
      0.9532000000D+01 -0.1541530739D+00
      0.9398000000D+00  0.1056914507D+01
 S   1 1.00       0.000000000000
      0.2846000000D+00  0.1000000000D+01
 P   4 1.00       0.000000000000
      0.3518000000D+02  0.1958000050D-01
      0.7904000000D+01  0.1242000032D+00
      0.2305000000D+01  0.3947140101D+00
      0.7171000000D+00  0.6273760161D+00
 P   1 1.00       0.000000000000
      0.2137000000D+00  0.1000000000D+01
 ****
      8 0
 S   3 1.00       0.000000000000
      0.1098000000D+01 -0.1023676994D+00
      0.4178000000D+00 -0.3753172148D+00
      0.8720000000D-01  0.1215423149D+01
 S   3 1.00       0.000000000000
      0.4372000000D+01 -0.3637098367D+00
      0.1098000000D+01  0.8184533826D+00
      0.4178000000D+00  0.4184526423D+00
 S   1 1.00       0.000000000000
      0.3140000000D-01  0.1000000000D+01
 P   3 1.00       0.000000000000
      0.1252000000D+02 -0.4569080054D-01
      0.1491000000D+01  0.6203313074D+00
      0.4859000000D+00  0.4765329057D+00
 P   1 1.00       0.000000000000
      0.5300000000D-01  0.1000000000D+01
 P   1 1.00       0.000000000000
      0.1600000000D-01  0.1000000000D+01
 D   4 1.00       0.000000000000
      0.2021000000D+02  0.3416819898D-01
      0.5495000000D+01  0.1710005949D+00
      0.1699000000D+01  0.4405848869D+00
      0.4840000000D+00  0.6114245818D+00
 D   1 1.00       0.000000000000
      0.1157000000D+00  0.1000000000D+01
 ****
      9 0
 S   7 1.00       0.000000000000
      0.7817000000D+04  0.1176000331D-02
      0.1176000000D+04  0.8968002523D-02
      0.2732000000D+03  0.4286801206D-01
      0.8117000000D+02  0.1439300405D+00
      0.2718000000D+02  0.3556301000D+00
      0.9532000000D+01  0.4612481297D+00
      0.3414000000D+01  0.1402060394D+00
 S   2 1.00       0.000000000000
      0.9532000000D+01 -0.1541530739D+00
      0.9398000000D+00  0.1056914507D+01
 S   1 1.00       0.000000000000
      0.2846000000D+00  0.1000000000D+01
 P   4 1.00       0.000000000000
      0.3518000000D+02  0.1958000050D-01
      0.7904000000D+01  0.1242000032D+00
      0.2305000000D+01  0.3947140101D+00
      0.7171000000D+00  0.6273760161D+00
 P   1 1.00       0.000000000000
      0.2137000000D+00  0.1000000000D+01
 ****
     10 0
 S   3 1.00       0.000000000000
      0.1924060000D+02  0.3282807697D-01
      0.2899200000D+01  0.2312085421D+00
      0.6534000000D+00  0.8172399161D+00
 S   1 1.00       0.000000000000
      0.1776000000D+00  0.1000000000D+01
 ****
     11 0
 S   7 1.00       0.000000000000
      0.7817000000D+04  0.1176000331D-02
      0.1176000000D+04  0.8968002523D-02
      0.2732000000D+03  0.4286801206D-01
      0.8117000000D+02  0.1439300405D+00
      0.2718000000D+02  0.3556301000D+00
      0.9532000000D+01  0.4612481297D+00
      0.3414000000D+01  0.1402060394D+00
 S   2 1.00       0.000000000000
      0.9532000000D+01 -0.1541530739D+00
      0.9398000000D+00  0.1056914507D+01
 S   1 1.00       0.000000000000
      0.2846000000D+00  0.1000000000D+01
 P   4 1.00       0.000000000000
      0.3518000000D+02  0.1958000050D-01
      0.7904000000D+01  0.1242000032D+00
      0.2305000000D+01  0.3947140101D+00
      0.7171000000D+00  0.6273760161D+00
 P   1 1.00       0.000000000000
      0.2137000000D+00  0.1000000000D+01
 ****
     12 0
 S   3 1.00       0.000000000000
      0.1924060000D+02  0.3282807697D-01
      0.2899200000D+01  0.2312085421D+00
      0.6534000000D+00  0.8172399161D+00
 S   1 1.00       0.000000000000
      0.1776000000D+00  0.1000000000D+01
 ****

 Effective core potential in the form of general ECP input:
      1 0
 Ti1-ECP   2 10
 D component
  3
  1      265.3263909      -10.00000000    0.00000000
  2       47.7687815      -51.84278160    0.00000000
  2       11.8903334       -9.14291450    0.00000000
 S-D projection
  5
  0       81.4730696        3.00000000    0.00000000
  1       72.6496724       19.48255790    0.00000000
  2       31.8128213      207.33492790    0.00000000
  2        6.1664468      235.67445010    0.00000000
  2        5.8268347     -166.87843870    0.00000000
 P-D projection
  5
  0       50.2966943        5.00000000    0.00000000
  1       63.5089754        5.53488220    0.00000000
  2       26.0996084      177.84193840    0.00000000
  2        5.6022573      107.42071530    0.00000000
  2        5.2171069      -71.90659020    0.00000000
      2 0
 Ti2-ECP   2 10
 D component
  3
  1      265.3263909      -10.00000000    0.00000000
  2       47.7687815      -51.84278160    0.00000000
  2       11.8903334       -9.14291450    0.00000000
 S-D projection
  5
  0       81.4730696        3.00000000    0.00000000
  1       72.6496724       19.48255790    0.00000000
  2       31.8128213      207.33492790    0.00000000
  2        6.1664468      235.67445010    0.00000000
  2        5.8268347     -166.87843870    0.00000000
 P-D projection
  5
  0       50.2966943        5.00000000    0.00000000
  1       63.5089754        5.53488220    0.00000000
  2       26.0996084      177.84193840    0.00000000
  2        5.6022573      107.42071530    0.00000000
  2        5.2171069      -71.90659020    0.00000000
      8 0
 Ti8-ECP   2 10
 D component
  3
  1      265.3263909      -10.00000000    0.00000000
  2       47.7687815      -51.84278160    0.00000000
  2       11.8903334       -9.14291450    0.00000000
 S-D projection
  5
  0       81.4730696        3.00000000    0.00000000
  1       72.6496724       19.48255790    0.00000000
  2       31.8128213      207.33492790    0.00000000
  2        6.1664468      235.67445010    0.00000000
  2        5.8268347     -166.87843870    0.00000000
 P-D projection
  5
  0       50.2966943        5.00000000    0.00000000
  1       63.5089754        5.53488220    0.00000000
  2       26.0996084      177.84193840    0.00000000
  2        5.6022573      107.42071530    0.00000000
  2        5.2171069      -71.90659020    0.00000000
 
   133 basis functions,   339 primitive gaussians,   139 cartesian basis functions
    47 alpha electrons       47 beta electrons
       nuclear repulsion energy       709.3607093168 Hartrees.
 NAtoms=   12 NActive=   12 NUniq=   12 SFac= 1.00D+00 NAtFMM=   60 NAOKFM=F Big=F
 ------------------------------------------------------------------------------
 Polarizable Continuum Model (PCM)
 =================================
 Model                : PCM.
 Atomic radii         : UFF (Universal Force Field).
 Polarization charges : Total charges.
 Charge compensation  : None.
 Solution method      : On-the-fly selection.
 Cavity type          : Scaled VdW (van der Waals Surface) (Alpha=1.100).
 Cavity algorithm     : GePol (No added spheres)
                        Default sphere list used, NSphG=   12.
                        Lebedev-Laikov grids with approx.  5.0 points / Ang**2.
                        Smoothing algorithm: York/Karplus (Gamma=1.0000).
                        Polarization charges: spherical gaussians, with
                                              point-specific exponents (IZeta= 3).
                        Self-potential: point-specific (ISelfS= 7).
                        Self-field    : sphere-specific E.n sum rule (ISelfD= 2).
 Solvent              : Ethanol, Eps=  24.852000 Eps(inf)=   1.852593
 ------------------------------------------------------------------------------
 Spheres list:
 ISph  on   Nord     Re0    Alpha      Xe            Ye            Ze
    1  Ti      1    1.5875  1.100      0.324101     -0.000009      0.051399
    2  Ti      2    1.5875  1.100      3.067841     -0.000006     -0.374371
    3   O      3    1.7500  1.100      1.657502     -1.232348     -0.158651
    4   O      4    1.7500  1.100      1.657490      1.232342     -0.158621
    5   O      5    1.7500  1.100     -1.108389      0.000029      1.274919
    6   O      6    1.7500  1.100     -1.034969     -0.000010     -1.186111
    7   O      7    1.7500  1.100      3.938241      0.000015      1.028669
    8  Ti      8    1.5875  1.100     -2.451779      0.000008      0.027779
    9   O      9    1.7500  1.100     -3.360658     -1.530413      0.004959
   10   H     10    1.4430  1.100     -3.895987     -2.336203      0.007019
   11   O     11    1.7500  1.100     -3.360861      1.530277      0.004799
   12   H     12    1.4430  1.100     -3.894442      2.337217      0.007489
 ------------------------------------------------------------------------------
   1 Symmetry operations used in ECPInt.
 ECPInt:  NShTT=    2016 NPrTT=   13777 LenC2=    1945 LenP2D=    9110.
 LDataN:  DoStor=T MaxTD1= 4 Len=   56
 ExpMin= 1.60D-02 ExpMax= 7.82D+03 ExpMxC= 2.73D+02 IAcc=3 IRadAn=         5 AccDes= 0.00D+00
 Harris functional with IExCor=  402 and IRadAn=       5 diagonalized for initial guess.
 HarFok:  IExCor=  402 AccDes= 0.00D+00 IRadAn=         5 IDoV= 1 UseB2=F ITyADJ=14
 ICtDFT=  3500011 ScaDFX=  1.000000  1.000000  1.000000  1.000000
 FoFCou: FMM=F IPFlag=           0 FMFlag=      100000 FMFlg1=           0
         NFxFlg=           0 DoJE=T BraDBF=F KetDBF=T FulRan=T
         wScrn=  0.000000 ICntrl=       500 IOpCl=  0 I1Cent=   200000004 NGrid=           0
         NMat0=    1 NMatS0=      1 NMatT0=    0 NMatD0=    1 NMtDS0=    0 NMtDT0=    0
 Petite list used in FoFCou.
 Inv3:  Mode=1 IEnd=     7282092.
 Iteration    1 A*A^-1 deviation from unit magnitude is 2.44D-15 for    913.
 Iteration    1 A*A^-1 deviation from orthogonality  is 2.44D-15 for   1308     98.
 Iteration    1 A^-1*A deviation from unit magnitude is 2.44D-15 for     78.
 Iteration    1 A^-1*A deviation from orthogonality  is 1.80D-14 for   1006    952.
 EnCoef did     3 forward-backward iterations
 EnCoef did     4 forward-backward iterations
 Rare condition: small coef for last iteration:  0.222D-15
 Error on total polarization charges =  0.02229
 SCF Done:  E(RB3LYP) =  -702.721872613     A.U. after   20 cycles
            NFock= 20  Conv=0.91D-09     -V/T= 2.1750

 **********************************************************************

            Population analysis using the SCF density.

 **********************************************************************

 Orbital symmetries:
       Occupied  (A) (A) (A) (A) (A) (A) (A) (A) (A) (A) (A) (A)
                 (A) (A) (A) (A) (A) (A) (A) (A) (A) (A) (A) (A)
                 (A) (A) (A) (A) (A) (A) (A) (A) (A) (A) (A) (A)
                 (A) (A) (A) (A) (A) (A) (A) (A) (A) (A) (A)
       Virtual   (A) (A) (A) (A) (A) (A) (A) (A) (A) (A) (A) (A)
                 (A) (A) (A) (A) (A) (A) (A) (A) (A) (A) (A) (A)
                 (A) (A) (A) (A) (A) (A) (A) (A) (A) (A) (A) (A)
                 (A) (A) (A) (A) (A) (A) (A) (A) (A) (A) (A) (A)
                 (A) (A) (A) (A) (A) (A) (A) (A) (A) (A) (A) (A)
                 (A) (A) (A) (A) (A) (A) (A) (A) (A) (A) (A) (A)
                 (A) (A) (A) (A) (A) (A) (A) (A) (A) (A) (A) (A)
                 (A) (A)
 The electronic state is 1-A.
 Alpha  occ. eigenvalues --  -19.14361 -19.14360 -19.14146 -19.13809 -19.13809
 Alpha  occ. eigenvalues --  -19.13653 -19.12450  -2.46338  -2.45703  -2.44824
 Alpha  occ. eigenvalues --   -1.59645  -1.58683  -1.58222  -1.58000  -1.57582
 Alpha  occ. eigenvalues --   -1.57500  -1.57348  -1.56709  -1.56542  -0.97270
 Alpha  occ. eigenvalues --   -0.96646  -0.92959  -0.91344  -0.90970  -0.90704
 Alpha  occ. eigenvalues --   -0.87164  -0.51841  -0.50865  -0.40751  -0.39562
 Alpha  occ. eigenvalues --   -0.39279  -0.38117  -0.37263  -0.36844  -0.36701
 Alpha  occ. eigenvalues --   -0.36292  -0.36239  -0.34981  -0.34384  -0.34137
 Alpha  occ. eigenvalues --   -0.32946  -0.32826  -0.31695  -0.31502  -0.30812
 Alpha  occ. eigenvalues --   -0.29822  -0.29101
 Alpha virt. eigenvalues --   -0.09774  -0.08879  -0.07476  -0.06609  -0.06068
 Alpha virt. eigenvalues --   -0.05338  -0.04136  -0.04090  -0.03114  -0.02089
 Alpha virt. eigenvalues --   -0.01664  -0.01062  -0.00548  -0.00233   0.00174
 Alpha virt. eigenvalues --    0.00313   0.01210   0.01352   0.01699   0.02040
 Alpha virt. eigenvalues --    0.02279   0.02770   0.04313   0.04508   0.04765
 Alpha virt. eigenvalues --    0.07365   0.09680   0.12368   0.12717   0.14273
 Alpha virt. eigenvalues --    0.14403   0.16008   0.16671   0.16757   0.17794
 Alpha virt. eigenvalues --    0.19302   0.20602   0.22107   0.31478   0.31814
 Alpha virt. eigenvalues --    0.33197   0.34090   0.34480   0.34678   0.34681
 Alpha virt. eigenvalues --    0.36783   0.37105   0.38165   0.38177   0.42533
 Alpha virt. eigenvalues --    0.45298   0.50062   0.51106   0.62155   0.67591
 Alpha virt. eigenvalues --    0.72353   0.73398   0.74799   0.74959   0.78424
 Alpha virt. eigenvalues --    0.80272   0.80738   0.82107   0.84350   0.84545
 Alpha virt. eigenvalues --    0.87036   0.88247   0.88853   0.92433   0.94218
 Alpha virt. eigenvalues --    0.96743   0.96919   0.99945   1.04153   1.05426
 Alpha virt. eigenvalues --    1.09316   1.35419   1.48419   1.49592   1.53998
 Alpha virt. eigenvalues --    1.59922   1.62284   1.70769   3.76840  11.07528
 Alpha virt. eigenvalues --   16.32510
     Molecular Orbital Coefficients:
                           1         2         3         4         5
                           O         O         O         O         O
     Eigenvalues --   -19.14361 -19.14360 -19.14146 -19.13809 -19.13809
   1 1   Ti 1S         -0.00001  -0.00001   0.00078   0.00027   0.00154
   2        2S          0.00005   0.00005   0.00022   0.00008   0.00043
   3        3S          0.00030   0.00029  -0.00033  -0.00009  -0.00050
   4        4PX        -0.00003  -0.00003  -0.00010   0.00003   0.00015
   5        4PY        -0.00001   0.00001  -0.00000   0.00024  -0.00004
   6        4PZ         0.00000   0.00000  -0.00017  -0.00000  -0.00002
   7        5PX         0.00021   0.00021  -0.00208   0.00045   0.00255
   8        5PY        -0.00013   0.00013  -0.00000   0.00049  -0.00009
   9        5PZ        -0.00002  -0.00002  -0.00020  -0.00002  -0.00013
  10        6PX        -0.00009  -0.00008  -0.00016   0.00003   0.00017
  11        6PY         0.00025  -0.00026  -0.00000  -0.00046   0.00008
  12        6PZ        -0.00002  -0.00002   0.00038   0.00001   0.00003
  13        7D 0       -0.00002  -0.00002   0.00002  -0.00001  -0.00005
  14        7D+1        0.00000   0.00000   0.00007  -0.00000  -0.00001
  15        7D-1        0.00000  -0.00000   0.00000  -0.00002   0.00000
  16        7D+2        0.00001   0.00001   0.00003   0.00000   0.00001
  17        7D-2        0.00001  -0.00001   0.00000   0.00009  -0.00002
  18        8D 0        0.00001   0.00001  -0.00004  -0.00014  -0.00082
  19        8D+1       -0.00000  -0.00000   0.00051  -0.00008  -0.00047
  20        8D-1        0.00002  -0.00003   0.00000  -0.00012   0.00002
  21        8D+2       -0.00008  -0.00008   0.00069   0.00011   0.00061
  22        8D-2       -0.00033   0.00035  -0.00000   0.00090  -0.00016
  23 2   Ti 1S         -0.00001  -0.00001   0.00029   0.00003   0.00017
  24        2S         -0.00000  -0.00000   0.00012   0.00001   0.00003
  25        3S         -0.00023  -0.00022   0.00119  -0.00018  -0.00101
  26        4PX        -0.00000  -0.00000  -0.00002  -0.00003  -0.00015
  27        4PY         0.00001  -0.00001  -0.00000   0.00019  -0.00003
  28        4PZ         0.00000   0.00000  -0.00000   0.00001   0.00006
  29        5PX         0.00012   0.00012  -0.00057  -0.00003  -0.00018
  30        5PY         0.00010  -0.00011   0.00000   0.00035  -0.00006
  31        5PZ        -0.00002  -0.00002   0.00008  -0.00001  -0.00008
  32        6PX         0.00006   0.00006  -0.00012   0.00005   0.00028
  33        6PY        -0.00009   0.00009   0.00000   0.00001  -0.00000
  34        6PZ         0.00000   0.00000  -0.00012  -0.00001  -0.00007
  35        7D 0        0.00000   0.00000  -0.00001  -0.00001  -0.00006
  36        7D+1        0.00000   0.00000  -0.00001  -0.00000  -0.00001
  37        7D-1       -0.00000   0.00000   0.00000   0.00002  -0.00000
  38        7D+2        0.00000   0.00000  -0.00001   0.00000   0.00000
  39        7D-2        0.00001  -0.00001   0.00000  -0.00015   0.00003
  40        8D 0        0.00000   0.00000  -0.00005  -0.00007  -0.00041
  41        8D+1       -0.00000  -0.00000   0.00015  -0.00004  -0.00020
  42        8D-1        0.00000  -0.00000   0.00000   0.00001  -0.00000
  43        8D+2       -0.00003  -0.00003   0.00008   0.00001   0.00008
  44        8D-2       -0.00008   0.00008  -0.00000  -0.00035   0.00006
  45 3   O  1S          0.00006  -0.00011   0.00007  -0.57333   0.81791
  46        2S          0.00003  -0.00005   0.00001  -0.00363   0.00531
  47        3S         -0.00015   0.00018  -0.00000   0.00223  -0.00383
  48        4PX         0.00001   0.00001   0.00001   0.00001  -0.00001
  49        4PY        -0.00001  -0.00000   0.00003  -0.00049   0.00061
  50        4PZ         0.00000  -0.00000   0.00001   0.00000  -0.00001
  51        5PX         0.00003  -0.00007  -0.00007  -0.00003   0.00002
  52        5PY         0.00002   0.00004  -0.00023   0.00044  -0.00079
  53        5PZ        -0.00002   0.00003  -0.00006  -0.00000   0.00001
  54 4   O  1S         -0.00010   0.00006   0.00007   0.81790   0.57334
  55        2S         -0.00005   0.00004   0.00001   0.00522   0.00375
  56        3S          0.00017  -0.00016  -0.00000  -0.00340  -0.00284
  57        4PX         0.00001   0.00001   0.00001  -0.00001  -0.00001
  58        4PY         0.00000   0.00001  -0.00003  -0.00066  -0.00041
  59        4PZ        -0.00000   0.00000   0.00001  -0.00001  -0.00001
  60        5PX        -0.00007   0.00004  -0.00007   0.00004   0.00001
  61        5PY        -0.00005  -0.00002   0.00023   0.00068   0.00059
  62        5PZ         0.00002  -0.00002  -0.00006   0.00000   0.00001
  63 5   O  1S         -0.00000  -0.00000  -0.00011   0.00016   0.00089
  64        2S         -0.00001  -0.00001   0.00011   0.00002   0.00010
  65        3S          0.00013   0.00012  -0.00052  -0.00006  -0.00035
  66        4PX        -0.00002  -0.00002   0.00000  -0.00000  -0.00002
  67        4PY         0.00001  -0.00001  -0.00000  -0.00002   0.00000
  68        4PZ        -0.00002  -0.00002   0.00006  -0.00001  -0.00005
  69        5PX         0.00013   0.00012  -0.00001  -0.00000  -0.00001
  70        5PY         0.00000  -0.00000   0.00000   0.00012  -0.00002
  71        5PZ         0.00007   0.00007   0.00008   0.00007   0.00041
  72 6   O  1S         -0.00001  -0.00001   0.99884  -0.00002  -0.00010
  73        2S         -0.00001  -0.00001   0.00644   0.00000   0.00001
  74        3S          0.00014   0.00013  -0.00443   0.00000   0.00003
  75        4PX        -0.00002  -0.00002  -0.00001  -0.00000  -0.00001
  76        4PY         0.00000  -0.00000   0.00000  -0.00000   0.00000
  77        4PZ         0.00002   0.00002   0.00080   0.00001   0.00003
  78        5PX         0.00012   0.00011   0.00003   0.00001   0.00008
  79        5PY         0.00002  -0.00002   0.00000   0.00003  -0.00000
  80        5PZ        -0.00006  -0.00006  -0.00091  -0.00005  -0.00030
  81 7   O  1S         -0.00000  -0.00000   0.00001   0.00000   0.00001
  82        2S         -0.00000  -0.00000   0.00002   0.00000   0.00001
  83        3S          0.00001   0.00001  -0.00009   0.00002   0.00012
  84        4PX        -0.00000  -0.00000   0.00001  -0.00000  -0.00003
  85        4PY        -0.00000   0.00000  -0.00000  -0.00002   0.00000
  86        4PZ        -0.00000  -0.00000   0.00000  -0.00000  -0.00002
  87        5PX         0.00000   0.00000  -0.00007   0.00002   0.00013
  88        5PY         0.00001  -0.00001   0.00000   0.00007  -0.00001
  89        5PZ         0.00000   0.00000   0.00003   0.00002   0.00013
  90 8   Ti 1S          0.00100   0.00096   0.00035   0.00002   0.00014
  91        2S          0.00025   0.00024   0.00012   0.00001   0.00008
  92        3S         -0.00038  -0.00037  -0.00098   0.00026   0.00145
  93        4PX        -0.00004  -0.00004   0.00010   0.00001   0.00003
  94        4PY         0.00005  -0.00005   0.00000  -0.00001   0.00000
  95        4PZ         0.00000   0.00000  -0.00015   0.00000   0.00001
  96        5PX        -0.00062  -0.00059   0.00018   0.00012   0.00066
  97        5PY         0.00060  -0.00062   0.00000   0.00003  -0.00001
  98        5PZ         0.00000   0.00000  -0.00033  -0.00001  -0.00007
  99        6PX         0.00019   0.00019  -0.00024   0.00003   0.00014
 100        6PY        -0.00038   0.00040   0.00000   0.00021  -0.00004
 101        6PZ         0.00001   0.00001  -0.00002   0.00000   0.00002
 102        7D 0       -0.00006  -0.00005   0.00000   0.00000   0.00003
 103        7D+1        0.00000   0.00000  -0.00010   0.00000   0.00001
 104        7D-1        0.00000  -0.00000  -0.00000  -0.00000   0.00000
 105        7D+2       -0.00001  -0.00001   0.00002   0.00000   0.00002
 106        7D-2       -0.00001   0.00001  -0.00000  -0.00003   0.00000
 107        8D 0       -0.00031  -0.00029   0.00012  -0.00000  -0.00003
 108        8D+1        0.00001   0.00001  -0.00032  -0.00001  -0.00006
 109        8D-1       -0.00000   0.00000   0.00000  -0.00001   0.00000
 110        8D+2       -0.00046  -0.00044   0.00051  -0.00001  -0.00006
 111        8D-2       -0.00069   0.00072  -0.00000   0.00049  -0.00009
 112 9   O  1S          0.02083   0.99859   0.00001  -0.00011   0.00005
 113        2S          0.00017   0.00649   0.00001   0.00005  -0.00002
 114        3S         -0.00010  -0.00434   0.00006  -0.00023   0.00006
 115        4PX         0.00003  -0.00042   0.00001  -0.00002   0.00000
 116        4PY         0.00002  -0.00054   0.00003  -0.00000  -0.00001
 117        4PZ         0.00000   0.00002   0.00001   0.00000  -0.00000
 118        5PX        -0.00030   0.00041   0.00000   0.00010  -0.00003
 119        5PY        -0.00014   0.00052  -0.00018  -0.00005   0.00008
 120        5PZ        -0.00000  -0.00002  -0.00004  -0.00001  -0.00000
 121 10  H  1S         -0.00005   0.00008  -0.00005   0.00003   0.00001
 122        2S         -0.00009   0.00102   0.00005  -0.00001  -0.00002
 123 11  O  1S          0.99859  -0.02083   0.00001   0.00012   0.00001
 124        2S          0.00649  -0.00010   0.00001  -0.00005  -0.00001
 125        3S         -0.00434   0.00008   0.00006   0.00024  -0.00003
 126        4PX        -0.00041   0.00004   0.00001   0.00002  -0.00000
 127        4PY         0.00054  -0.00004  -0.00003   0.00000   0.00001
 128        4PZ         0.00002  -0.00000   0.00001  -0.00000  -0.00000
 129        5PX         0.00039  -0.00032   0.00000  -0.00010   0.00001
 130        5PY        -0.00052   0.00016   0.00018  -0.00007  -0.00006
 131        5PZ        -0.00002  -0.00000  -0.00004   0.00001  -0.00000
 132 12  H  1S          0.00008  -0.00005  -0.00006  -0.00002   0.00002
 133        2S          0.00101  -0.00013   0.00005   0.00000  -0.00002
                           6         7         8         9        10
                           O         O         O         O         O
     Eigenvalues --   -19.13653 -19.12450  -2.46338  -2.45703  -2.44824
   1 1   Ti 1S          0.00118  -0.00003  -0.00001  -0.01046   0.00263
   2        2S          0.00027   0.00002   0.13996   0.98732  -0.10082
   3        3S         -0.00007   0.00017  -0.00068   0.00810   0.00296
   4        4PX        -0.00009   0.00002  -0.00124   0.00161   0.00122
   5        4PY        -0.00000  -0.00000  -0.00000   0.00000  -0.00000
   6        4PZ         0.00014  -0.00000  -0.00037  -0.00242  -0.00007
   7        5PX        -0.00159  -0.00030  -0.00012  -0.00028   0.00117
   8        5PY        -0.00000   0.00000   0.00000   0.00000   0.00000
   9        5PZ         0.00040  -0.00025   0.00015  -0.00080   0.00005
  10        6PX        -0.00008  -0.00004   0.00098  -0.00044   0.00059
  11        6PY        -0.00000  -0.00000   0.00000   0.00000  -0.00000
  12        6PZ        -0.00025   0.00023  -0.00015   0.00028   0.00029
  13        7D 0        0.00001   0.00000  -0.00058  -0.00079  -0.00025
  14        7D+1       -0.00009  -0.00001  -0.00004   0.00017  -0.00036
  15        7D-1        0.00000   0.00000  -0.00000  -0.00000   0.00000
  16        7D+2        0.00003  -0.00000   0.00095   0.00148   0.00058
  17        7D-2       -0.00000  -0.00000   0.00000   0.00000   0.00000
  18        8D 0       -0.00011  -0.00003  -0.00347   0.00352   0.00137
  19        8D+1       -0.00073   0.00013   0.00116   0.00137   0.00132
  20        8D-1        0.00000  -0.00000  -0.00000   0.00000  -0.00000
  21        8D+2        0.00096  -0.00003  -0.00103  -0.00497   0.00417
  22        8D-2       -0.00000   0.00000  -0.00000  -0.00000   0.00000
  23 2   Ti 1S          0.00004   0.00103   0.00056  -0.00077  -0.00974
  24        2S          0.00003   0.00046   0.00717   0.09937   0.99636
  25        3S          0.00077  -0.00000  -0.00127  -0.00278   0.00002
  26        4PX        -0.00002   0.00013   0.00007  -0.00129   0.00236
  27        4PY         0.00000   0.00000   0.00000  -0.00000  -0.00000
  28        4PZ        -0.00001   0.00025   0.00019   0.00206   0.01813
  29        5PX        -0.00034   0.00040  -0.00050   0.00268   0.00441
  30        5PY         0.00000   0.00000   0.00000  -0.00000  -0.00000
  31        5PZ         0.00018   0.00090  -0.00021   0.00085  -0.00235
  32        6PX        -0.00008  -0.00015   0.00042   0.00010  -0.00093
  33        6PY         0.00000  -0.00000  -0.00000  -0.00000   0.00000
  34        6PZ         0.00011  -0.00039   0.00003  -0.00052  -0.00023
  35        7D 0       -0.00003  -0.00002  -0.00002  -0.00039  -0.00032
  36        7D+1        0.00001  -0.00000  -0.00006  -0.00049  -0.00213
  37        7D-1        0.00000  -0.00000  -0.00000  -0.00000  -0.00000
  38        7D+2       -0.00001   0.00000   0.00003   0.00100   0.00044
  39        7D-2        0.00000   0.00000   0.00000  -0.00000  -0.00000
  40        8D 0        0.00009   0.00025   0.00016   0.00276  -0.00018
  41        8D+1       -0.00020   0.00036   0.00066   0.00125   0.00167
  42        8D-1        0.00000   0.00000  -0.00000  -0.00000  -0.00000
  43        8D+2       -0.00009   0.00014   0.00096   0.00201  -0.00185
  44        8D-2       -0.00000   0.00000  -0.00000   0.00000   0.00000
  45 3   O  1S         -0.00064  -0.00001  -0.00042  -0.00325  -0.00212
  46        2S          0.00007   0.00003   0.00115   0.00579   0.00376
  47        3S         -0.00024  -0.00006  -0.00080   0.00690   0.00440
  48        4PX         0.00002  -0.00001  -0.00073  -0.00478   0.00489
  49        4PY         0.00003  -0.00000   0.00059   0.00523   0.00350
  50        4PZ        -0.00001  -0.00001   0.00015   0.00076  -0.00078
  51        5PX        -0.00009  -0.00003   0.00104   0.00410  -0.00347
  52        5PY        -0.00034  -0.00004  -0.00009  -0.00054  -0.00132
  53        5PZ         0.00008   0.00002  -0.00053  -0.00048   0.00078
  54 4   O  1S         -0.00063  -0.00001  -0.00042  -0.00325  -0.00212
  55        2S          0.00007   0.00003   0.00115   0.00579   0.00376
  56        3S         -0.00024  -0.00006  -0.00080   0.00690   0.00440
  57        4PX         0.00002  -0.00001  -0.00073  -0.00478   0.00489
  58        4PY        -0.00003   0.00000  -0.00059  -0.00523  -0.00350
  59        4PZ        -0.00001  -0.00001   0.00015   0.00076  -0.00078
  60        5PX        -0.00009  -0.00003   0.00104   0.00410  -0.00347
  61        5PY         0.00034   0.00004   0.00009   0.00054   0.00132
  62        5PZ         0.00008   0.00002  -0.00053  -0.00048   0.00078
  63 5   O  1S          0.99884   0.00002  -0.00328  -0.00199   0.00025
  64        2S          0.00650  -0.00003   0.00612   0.00297  -0.00005
  65        3S         -0.00464   0.00008   0.00595   0.00695  -0.00203
  66        4PX        -0.00002  -0.00002  -0.00436   0.00521  -0.00045
  67        4PY        -0.00000   0.00000  -0.00000  -0.00000  -0.00000
  68        4PZ        -0.00077  -0.00001  -0.00538  -0.00320   0.00049
  69        5PX        -0.00012   0.00010   0.00335  -0.00403   0.00003
  70        5PY         0.00000  -0.00000   0.00000  -0.00000   0.00000
  71        5PZ         0.00095   0.00001   0.00172  -0.00030   0.00009
  72 6   O  1S          0.00013  -0.00001  -0.00300  -0.00253   0.00031
  73        2S          0.00011   0.00001   0.00564   0.00444   0.00001
  74        3S         -0.00052  -0.00005   0.00524   0.00572  -0.00307
  75        4PX        -0.00000  -0.00001  -0.00396   0.00572  -0.00056
  76        4PY        -0.00000   0.00000   0.00000  -0.00000   0.00000
  77        4PZ        -0.00005  -0.00000   0.00484   0.00410  -0.00058
  78        5PX         0.00005  -0.00000   0.00283  -0.00484   0.00001
  79        5PY         0.00000  -0.00000   0.00000   0.00000  -0.00000
  80        5PZ        -0.00015   0.00001  -0.00157  -0.00016  -0.00014
  81 7   O  1S         -0.00003   0.99884  -0.00004  -0.00058  -0.00611
  82        2S         -0.00002   0.00610   0.00022   0.00171   0.01300
  83        3S          0.00008  -0.00346  -0.00056  -0.00206   0.00237
  84        4PX        -0.00001  -0.00040  -0.00004  -0.00050  -0.00677
  85        4PY         0.00000  -0.00000  -0.00000  -0.00000  -0.00000
  86        4PZ         0.00002  -0.00067  -0.00009  -0.00099  -0.01123
  87        5PX         0.00007   0.00032  -0.00007  -0.00028   0.00228
  88        5PY        -0.00000   0.00000   0.00000   0.00000   0.00000
  89        5PZ        -0.00010   0.00056   0.00024   0.00018   0.00523
  90 8   Ti 1S          0.00037  -0.00000  -0.00839   0.00209   0.00028
  91        2S          0.00013   0.00001   0.99427  -0.14128   0.00664
  92        3S         -0.00082  -0.00033   0.00635  -0.00472  -0.00087
  93        4PX         0.00010   0.00001   0.00564   0.00062  -0.00038
  94        4PY         0.00000   0.00000   0.00000  -0.00000  -0.00000
  95        4PZ         0.00015   0.00001   0.00075  -0.00010   0.00001
  96        5PX         0.00021  -0.00014  -0.00468  -0.00317   0.00042
  97        5PY         0.00000   0.00000  -0.00000  -0.00000  -0.00000
  98        5PZ         0.00021   0.00010   0.00012   0.00057   0.00017
  99        6PX        -0.00024  -0.00003   0.00120  -0.00004  -0.00082
 100        6PY         0.00000   0.00000  -0.00000  -0.00000  -0.00000
 101        6PZ        -0.00002  -0.00006   0.00003  -0.00018  -0.00012
 102        7D 0        0.00002  -0.00000  -0.00132  -0.00052   0.00014
 103        7D+1        0.00010  -0.00000  -0.00011  -0.00002  -0.00003
 104        7D-1       -0.00000   0.00000  -0.00000   0.00000  -0.00000
 105        7D+2        0.00002   0.00000   0.00014   0.00089  -0.00014
 106        7D-2       -0.00000  -0.00000  -0.00000   0.00000  -0.00000
 107        8D 0        0.00012   0.00004   0.00008  -0.00384   0.00010
 108        8D+1        0.00023   0.00007   0.00019   0.00043   0.00018
 109        8D-1       -0.00000  -0.00000  -0.00000   0.00000  -0.00000
 110        8D+2        0.00047  -0.00001  -0.00293  -0.00325   0.00036
 111        8D-2       -0.00000   0.00000  -0.00000   0.00000  -0.00000
 112 9   O  1S          0.00000   0.00000  -0.00340   0.00052  -0.00003
 113        2S          0.00002  -0.00000   0.00653  -0.00037   0.00000
 114        3S          0.00005   0.00000   0.00525  -0.00335   0.00027
 115        4PX         0.00001  -0.00000   0.00418  -0.00055   0.00006
 116        4PY         0.00003   0.00000   0.00693  -0.00110   0.00008
 117        4PZ        -0.00001   0.00000   0.00010  -0.00001  -0.00000
 118        5PX        -0.00001   0.00001  -0.00550  -0.00017  -0.00016
 119        5PY        -0.00017   0.00000  -0.00766   0.00132  -0.00025
 120        5PZ         0.00004   0.00000  -0.00003  -0.00003   0.00003
 121 10  H  1S         -0.00005  -0.00000  -0.00071   0.00039  -0.00008
 122        2S          0.00005   0.00002  -0.00789   0.00044  -0.00010
 123 11  O  1S          0.00000   0.00000  -0.00340   0.00052  -0.00003
 124        2S          0.00002  -0.00000   0.00654  -0.00037   0.00000
 125        3S          0.00005   0.00000   0.00525  -0.00335   0.00027
 126        4PX         0.00001  -0.00000   0.00418  -0.00055   0.00006
 127        4PY        -0.00003  -0.00000  -0.00693   0.00110  -0.00008
 128        4PZ        -0.00001   0.00000   0.00010  -0.00001  -0.00000
 129        5PX        -0.00001   0.00001  -0.00549  -0.00017  -0.00016
 130        5PY         0.00017  -0.00000   0.00767  -0.00133   0.00026
 131        5PZ         0.00004   0.00000  -0.00002  -0.00003   0.00003
 132 12  H  1S         -0.00005  -0.00000  -0.00071   0.00039  -0.00008
 133        2S          0.00004   0.00002  -0.00789   0.00044  -0.00010
                          11        12        13        14        15
                           O         O         O         O         O
     Eigenvalues --    -1.59645  -1.58683  -1.58222  -1.58000  -1.57582
   1 1   Ti 1S         -0.00116  -0.00000   0.00551  -0.00085   0.00000
   2        2S          0.00191   0.00000  -0.01262   0.00152   0.00000
   3        3S         -0.00116  -0.00004  -0.00428   0.00528   0.00000
   4        4PX         0.70854  -0.00041   0.47253   0.03960   0.00003
   5        4PY         0.00000   0.04964   0.00005   0.00003   0.97397
   6        4PZ        -0.00840   0.00000  -0.08821   0.35038   0.00004
   7        5PX        -0.01957   0.00004   0.00215   0.00660  -0.00000
   8        5PY        -0.00000  -0.00165  -0.00000  -0.00000   0.00627
   9        5PZ         0.00114  -0.00000  -0.00014  -0.01008   0.00000
  10        6PX        -0.00522   0.00001   0.00067   0.00381  -0.00000
  11        6PY         0.00000  -0.00292  -0.00000  -0.00000  -0.00384
  12        6PZ         0.00033  -0.00000   0.00030   0.00439  -0.00000
  13        7D 0       -0.00189   0.00000  -0.00497  -0.00026  -0.00000
  14        7D+1       -0.00238   0.00000  -0.00184  -0.00316  -0.00000
  15        7D-1       -0.00000  -0.00010  -0.00000  -0.00000  -0.00161
  16        7D+2       -0.00323  -0.00000   0.00467  -0.00048  -0.00000
  17        7D-2        0.00000  -0.00013  -0.00000   0.00000   0.00633
  18        8D 0        0.00429   0.00001  -0.00696  -0.00037  -0.00000
  19        8D+1       -0.00009   0.00000   0.00106   0.00321  -0.00000
  20        8D-1        0.00000   0.00043  -0.00000  -0.00000  -0.00110
  21        8D+2        0.00023  -0.00001   0.00394  -0.00019  -0.00000
  22        8D-2       -0.00000  -0.00556   0.00000  -0.00000   0.00926
  23 2   Ti 1S          0.00462  -0.00000   0.00185  -0.00023   0.00000
  24        2S         -0.00525   0.00000  -0.00139  -0.00119  -0.00000
  25        3S          0.01370  -0.00001  -0.00118  -0.00916  -0.00000
  26        4PX        -0.23532   0.00024  -0.46141   0.03796   0.00005
  27        4PY        -0.00000   0.00455  -0.00000   0.00001   0.18343
  28        4PZ         0.00686   0.00001  -0.08262   0.04010   0.00007
  29        5PX        -0.01021   0.00001  -0.00071   0.00482   0.00000
  30        5PY         0.00000   0.00165  -0.00000  -0.00000  -0.01011
  31        5PZ         0.00349  -0.00000  -0.00004   0.00206  -0.00000
  32        6PX         0.00109  -0.00000  -0.00033  -0.00018   0.00000
  33        6PY        -0.00000   0.00109   0.00000   0.00000   0.00457
  34        6PZ        -0.00014   0.00000   0.00016  -0.00229  -0.00000
  35        7D 0       -0.00325   0.00000  -0.00568   0.00081   0.00000
  36        7D+1       -0.00365   0.00000  -0.00704   0.00079   0.00000
  37        7D-1       -0.00000   0.00001  -0.00000   0.00000   0.00140
  38        7D+2        0.00290  -0.00000   0.00174   0.00014   0.00000
  39        7D-2        0.00000   0.00005   0.00000  -0.00000  -0.00243
  40        8D 0        0.00168  -0.00000   0.00196   0.00086  -0.00000
  41        8D+1       -0.00069  -0.00000   0.00215  -0.00102   0.00000
  42        8D-1        0.00000   0.00006  -0.00000  -0.00000  -0.00117
  43        8D+2        0.00351  -0.00000   0.00179  -0.00092   0.00000
  44        8D-2       -0.00000  -0.00129   0.00000   0.00000   0.00532
  45 3   O  1S         -0.01238   0.00069  -0.01206   0.00060   0.01400
  46        2S          0.02627  -0.00105   0.02722  -0.00121  -0.03249
  47        3S          0.01941  -0.00319   0.01336  -0.00101  -0.01503
  48        4PX        -0.00668   0.00092  -0.00089   0.00011   0.01523
  49        4PY         0.01824  -0.00078   0.01777  -0.00090  -0.01502
  50        4PZ         0.00155  -0.00010  -0.00042   0.00222  -0.00239
  51        5PX         0.00195   0.00044   0.00017   0.00025  -0.00602
  52        5PY         0.00025   0.00012  -0.00114   0.00026   0.00524
  53        5PZ        -0.00012  -0.00035  -0.00112   0.00031   0.00097
  54 4   O  1S         -0.01238  -0.00067  -0.01206   0.00060  -0.01400
  55        2S          0.02627   0.00102   0.02722  -0.00121   0.03249
  56        3S          0.01941   0.00317   0.01336  -0.00100   0.01503
  57        4PX        -0.00668  -0.00091  -0.00089   0.00011  -0.01523
  58        4PY        -0.01824  -0.00075  -0.01777   0.00090  -0.01502
  59        4PZ         0.00155   0.00009  -0.00042   0.00222   0.00239
  60        5PX         0.00195  -0.00043   0.00017   0.00025   0.00602
  61        5PY        -0.00025   0.00011   0.00115  -0.00026   0.00524
  62        5PZ        -0.00012   0.00035  -0.00112   0.00031  -0.00097
  63 5   O  1S          0.01691   0.00000  -0.00373  -0.01435   0.00000
  64        2S         -0.03658   0.00000   0.00914   0.03321  -0.00000
  65        3S         -0.02484  -0.00000   0.00155   0.01728   0.00000
  66        4PX        -0.00049   0.00001  -0.01878  -0.01226   0.00000
  67        4PY         0.00000   0.00569   0.00000   0.00000   0.00427
  68        4PZ         0.02507  -0.00000  -0.00626  -0.01545   0.00000
  69        5PX        -0.00177  -0.00001   0.00905   0.00588  -0.00000
  70        5PY         0.00000   0.00084  -0.00000   0.00000   0.00130
  71        5PZ        -0.00068   0.00000   0.00212   0.00582  -0.00000
  72 6   O  1S          0.01706  -0.00000  -0.00340   0.01464   0.00000
  73        2S         -0.03697   0.00001   0.00840  -0.03417  -0.00000
  74        3S         -0.02489   0.00000   0.00200  -0.01694  -0.00000
  75        4PX        -0.00120   0.00001  -0.01511   0.00887  -0.00000
  76        4PY         0.00000   0.00511   0.00000   0.00000   0.00535
  77        4PZ        -0.02536   0.00001   0.00488  -0.01584  -0.00000
  78        5PX        -0.00085  -0.00001   0.00816  -0.00456   0.00000
  79        5PY         0.00000   0.00114   0.00000   0.00000   0.00051
  80        5PZ         0.00058  -0.00000  -0.00212   0.00607   0.00000
  81 7   O  1S          0.00372  -0.00000   0.00995  -0.00169  -0.00000
  82        2S         -0.00777   0.00001  -0.02105   0.00399   0.00001
  83        3S         -0.00515   0.00001  -0.01236   0.00093   0.00000
  84        4PX         0.00156  -0.00000   0.00568  -0.00146  -0.00000
  85        4PY         0.00000   0.00004   0.00000   0.00000   0.00183
  86        4PZ         0.00659  -0.00001   0.01601  -0.00246  -0.00000
  87        5PX        -0.00055   0.00000  -0.00131   0.00074   0.00000
  88        5PY         0.00000   0.00013   0.00000   0.00000   0.00065
  89        5PZ        -0.00155   0.00000  -0.00176   0.00014   0.00000
  90 8   Ti 1S         -0.00501   0.00000  -0.00142   0.00022  -0.00000
  91        2S          0.01232  -0.00000  -0.00317  -0.00051  -0.00000
  92        3S         -0.00949   0.00005  -0.00034   0.00436  -0.00000
  93        4PX        -0.62364  -0.00024   0.72464  -0.00102   0.00000
  94        4PY         0.00021   0.99054   0.00050   0.00015  -0.05128
  95        4PZ        -0.01777  -0.00016   0.03819   0.92559  -0.00004
  96        5PX        -0.01064   0.00003   0.00432   0.00176  -0.00000
  97        5PY         0.00000   0.01052   0.00001   0.00000   0.00145
  98        5PZ        -0.00081  -0.00000   0.00094   0.00583  -0.00000
  99        6PX         0.00107   0.00001   0.00003  -0.00068  -0.00000
 100        6PY         0.00000   0.00106   0.00000   0.00000   0.00050
 101        6PZ         0.00002   0.00000  -0.00049  -0.00216   0.00000
 102        7D 0        0.00053  -0.00000   0.00277   0.00074   0.00000
 103        7D+1       -0.00056  -0.00000   0.00062   0.00871  -0.00000
 104        7D-1       -0.00000  -0.00006   0.00000   0.00000  -0.00002
 105        7D+2       -0.01033   0.00000   0.00640   0.00008  -0.00000
 106        7D-2       -0.00000  -0.00654  -0.00000  -0.00000   0.00071
 107        8D 0        0.00259  -0.00001   0.00590   0.00040   0.00000
 108        8D+1       -0.00028   0.00000   0.00014   0.00351  -0.00000
 109        8D-1       -0.00000  -0.00019   0.00000   0.00000  -0.00011
 110        8D+2        0.00039   0.00002   0.00117  -0.00018  -0.00000
 111        8D-2       -0.00001  -0.00525   0.00000   0.00000   0.00786
 112 9   O  1S         -0.00647   0.01713   0.00760   0.00024  -0.00087
 113        2S          0.01371  -0.03770  -0.01702  -0.00053   0.00239
 114        3S          0.01115  -0.02432  -0.00951  -0.00037  -0.00147
 115        4PX         0.00248  -0.01751  -0.00306  -0.00029   0.00061
 116        4PY         0.01117  -0.02343  -0.01303  -0.00044   0.00128
 117        4PZ         0.00007  -0.00048   0.00002   0.00620   0.00003
 118        5PX        -0.00365   0.01056   0.00595   0.00023   0.00113
 119        5PY        -0.00587   0.01855   0.00746   0.00049  -0.00223
 120        5PZ         0.00001   0.00003   0.00008   0.00111  -0.00010
 121 10  H  1S         -0.00013  -0.00018  -0.00019   0.00003   0.00021
 122        2S         -0.00603   0.01949   0.00857   0.00042  -0.00120
 123 11  O  1S         -0.00647  -0.01714   0.00759   0.00024   0.00087
 124        2S          0.01373   0.03771  -0.01699  -0.00052  -0.00239
 125        3S          0.01116   0.02434  -0.00948  -0.00037   0.00147
 126        4PX         0.00249   0.01752  -0.00305  -0.00028  -0.00061
 127        4PY        -0.01118  -0.02344   0.01301   0.00044   0.00128
 128        4PZ         0.00007   0.00049   0.00002   0.00620  -0.00003
 129        5PX        -0.00365  -0.01053   0.00593   0.00023  -0.00113
 130        5PY         0.00588   0.01858  -0.00745  -0.00049  -0.00223
 131        5PZ         0.00001  -0.00002   0.00008   0.00111   0.00010
 132 12  H  1S         -0.00013   0.00018  -0.00019   0.00003  -0.00020
 133        2S         -0.00604  -0.01949   0.00855   0.00042   0.00120
                          16        17        18        19        20
                           O         O         O         O         O
     Eigenvalues --    -1.57500  -1.57348  -1.56709  -1.56542  -0.97270
   1 1   Ti 1S         -0.00105  -0.00071  -0.00233   0.00000   0.00352
   2        2S          0.00171   0.00245   0.00514  -0.00000  -0.01329
   3        3S          0.00322  -0.00093   0.00496  -0.00000  -0.00341
   4        4PX         0.26289  -0.10446   0.39951  -0.00004   0.01585
   5        4PY        -0.00010   0.00002  -0.00003  -0.19196   0.00000
   6        4PZ         0.57568   0.71886  -0.10392   0.00001   0.00169
   7        5PX         0.00999  -0.00895   0.00396   0.00000   0.06628
   8        5PY        -0.00000   0.00000  -0.00000  -0.01303  -0.00000
   9        5PZ         0.00771   0.00899  -0.00117  -0.00000  -0.00445
  10        6PX         0.00336  -0.00399   0.00225   0.00000   0.01059
  11        6PY        -0.00000   0.00000  -0.00000   0.00660  -0.00001
  12        6PZ        -0.00364  -0.00521   0.00042   0.00000  -0.00059
  13        7D 0       -0.00137  -0.00002   0.00017  -0.00000  -0.00099
  14        7D+1       -0.00219  -0.00274  -0.00002  -0.00000   0.00016
  15        7D-1        0.00000   0.00000   0.00000   0.00005   0.00000
  16        7D+2       -0.00109   0.00011  -0.00365   0.00000   0.00571
  17        7D-2       -0.00000   0.00000   0.00000   0.00049  -0.00000
  18        8D 0       -0.00468   0.00257  -0.00366   0.00000   0.00100
  19        8D+1       -0.00324  -0.00971   0.00169  -0.00000  -0.00134
  20        8D-1        0.00000   0.00000   0.00000   0.00176  -0.00000
  21        8D+2       -0.00050   0.00137  -0.00655   0.00000  -0.00690
  22        8D-2       -0.00000  -0.00000   0.00000  -0.00725   0.00001
  23 2   Ti 1S          0.00484  -0.00552  -0.00578   0.00000  -0.00452
  24        2S         -0.01948   0.01852   0.00633  -0.00000  -0.00354
  25        3S         -0.01186   0.01130  -0.00374   0.00000  -0.04362
  26        4PX         0.30170  -0.21532   0.75333  -0.00009   0.00355
  27        4PY        -0.00001  -0.00001   0.00010   0.97848   0.00000
  28        4PZ         0.61346  -0.59238  -0.48519   0.00004   0.00029
  29        5PX         0.00354  -0.00392   0.00471  -0.00000   0.02929
  30        5PY         0.00000  -0.00000   0.00000   0.01227  -0.00000
  31        5PZ         0.00169   0.00095  -0.00178   0.00000  -0.00466
  32        6PX         0.00015   0.00027  -0.00003  -0.00000  -0.00271
  33        6PY        -0.00000  -0.00000  -0.00000  -0.00497   0.00000
  34        6PZ        -0.00092   0.00209  -0.00051   0.00000  -0.00093
  35        7D 0        0.00950  -0.00843  -0.00141   0.00000  -0.00082
  36        7D+1        0.00873  -0.00826   0.00412  -0.00000  -0.00032
  37        7D-1        0.00000  -0.00000   0.00000   0.00568   0.00000
  38        7D+2        0.00247  -0.00278   0.00031   0.00000   0.00113
  39        7D-2        0.00000  -0.00000  -0.00000  -0.00299  -0.00000
  40        8D 0       -0.00015   0.00240   0.00143  -0.00000   0.00220
  41        8D+1       -0.00169  -0.00306   0.00165  -0.00000   0.00247
  42        8D-1        0.00000   0.00000   0.00000   0.00151   0.00000
  43        8D+2        0.00073  -0.00229   0.00387  -0.00000  -0.00393
  44        8D-2       -0.00000   0.00000  -0.00000  -0.00553   0.00000
  45 3   O  1S          0.00031   0.00130   0.00410   0.00761  -0.00324
  46        2S          0.00013  -0.00343  -0.00954  -0.01737   0.00756
  47        3S         -0.00403   0.00068  -0.00482  -0.01095   0.00458
  48        4PX        -0.00455   0.00525  -0.01728  -0.01933  -0.00058
  49        4PY        -0.00036  -0.00201  -0.00625  -0.00805   0.00195
  50        4PZ         0.00738   0.00050   0.00039   0.00281   0.00008
  51        5PX         0.00271  -0.00255   0.00824   0.00761   0.00138
  52        5PY        -0.00059   0.00001   0.00095   0.00268   0.00155
  53        5PZ         0.00069   0.00061  -0.00131  -0.00057   0.00028
  54 4   O  1S          0.00031   0.00130   0.00410  -0.00761  -0.00324
  55        2S          0.00012  -0.00343  -0.00953   0.01737   0.00757
  56        3S         -0.00403   0.00068  -0.00482   0.01095   0.00457
  57        4PX        -0.00454   0.00525  -0.01727   0.01933  -0.00058
  58        4PY         0.00036   0.00201   0.00624  -0.00806  -0.00195
  59        4PZ         0.00738   0.00050   0.00039  -0.00281   0.00008
  60        5PX         0.00271  -0.00255   0.00824  -0.00761   0.00138
  61        5PY         0.00058  -0.00001  -0.00095   0.00268  -0.00155
  62        5PZ         0.00069   0.00061  -0.00131   0.00057   0.00028
  63 5   O  1S         -0.00182  -0.00492   0.00353  -0.00000  -0.01747
  64        2S          0.00374   0.01180  -0.00843   0.00000   0.03552
  65        3S          0.00441   0.00438  -0.00240  -0.00000   0.03729
  66        4PX         0.00808   0.01809  -0.00967   0.00000  -0.00227
  67        4PY        -0.00000  -0.00000   0.00000  -0.00088  -0.00000
  68        4PZ        -0.00180  -0.00530   0.00465  -0.00000  -0.00978
  69        5PX        -0.00187  -0.00831   0.00462  -0.00000   0.00223
  70        5PY        -0.00000   0.00000  -0.00000  -0.00079  -0.00000
  71        5PZ         0.00153   0.00165  -0.00093   0.00000  -0.00241
  72 6   O  1S          0.00524   0.00532   0.00233  -0.00000  -0.01760
  73        2S         -0.01190  -0.01237  -0.00536   0.00000   0.03567
  74        3S         -0.00591  -0.00526  -0.00156  -0.00000   0.03859
  75        4PX        -0.02199  -0.01504  -0.00604   0.00000  -0.00215
  76        4PY        -0.00000  -0.00000  -0.00000  -0.00121  -0.00000
  77        4PZ        -0.00613  -0.00551  -0.00390   0.00000   0.00945
  78        5PX         0.00990   0.00542   0.00323  -0.00000   0.00148
  79        5PY        -0.00000   0.00000  -0.00000   0.00037  -0.00000
  80        5PZ         0.00064   0.00257   0.00037  -0.00000   0.00338
  81 7   O  1S         -0.02138   0.01941   0.00033   0.00000   0.00008
  82        2S          0.04749  -0.04320  -0.00064  -0.00000   0.00068
  83        3S          0.01929  -0.01662  -0.00108  -0.00000  -0.00279
  84        4PX        -0.01974   0.01826   0.00849  -0.00000  -0.00004
  85        4PY        -0.00000   0.00000   0.00000   0.01056   0.00000
  86        4PZ        -0.02999   0.02703  -0.00480   0.00000  -0.00046
  87        5PX         0.00412  -0.00157  -0.00066   0.00000   0.00066
  88        5PY         0.00000  -0.00000   0.00000  -0.00028  -0.00000
  89        5PZ         0.00485  -0.00621   0.00064  -0.00000   0.00216
  90 8   Ti 1S         -0.00069   0.00016  -0.00159   0.00000   0.05881
  91        2S          0.00126  -0.00032   0.00239  -0.00000  -0.09365
  92        3S          0.00645  -0.00775   0.00121   0.00000   0.03131
  93        4PX         0.18973  -0.04532   0.16251  -0.00001   0.08303
  94        4PY         0.00003  -0.00003   0.00003   0.00509  -0.00015
  95        4PZ        -0.27421  -0.23752   0.01321  -0.00000   0.00162
  96        5PX         0.00428  -0.00406   0.00191   0.00000   0.02493
  97        5PY         0.00000  -0.00000   0.00000   0.00238   0.00001
  98        5PZ        -0.00866  -0.01096   0.00127  -0.00000   0.00139
  99        6PX        -0.00021   0.00031  -0.00092   0.00000  -0.00297
 100        6PY        -0.00000  -0.00000  -0.00000  -0.00208   0.00001
 101        6PZ         0.00375   0.00480  -0.00041   0.00000   0.00022
 102        7D 0        0.00098  -0.00054   0.00127  -0.00000  -0.03679
 103        7D+1       -0.00132  -0.00071  -0.00003   0.00000   0.00123
 104        7D-1        0.00000  -0.00000   0.00000   0.00002  -0.00000
 105        7D+2        0.00092  -0.00013   0.00004   0.00000  -0.02609
 106        7D-2        0.00000  -0.00000   0.00000  -0.00026  -0.00005
 107        8D 0        0.00254  -0.00107   0.00400  -0.00000  -0.00525
 108        8D+1       -0.00441  -0.00558   0.00053   0.00000   0.00070
 109        8D-1        0.00000  -0.00000   0.00000   0.00015   0.00000
 110        8D+2        0.00062  -0.00107   0.00166   0.00000   0.00411
 111        8D-2        0.00000  -0.00000   0.00000  -0.00224   0.00001
 112 9   O  1S          0.00191  -0.00053   0.00171   0.00008  -0.16482
 113        2S         -0.00444   0.00135  -0.00421  -0.00048   0.35204
 114        3S         -0.00194   0.00014  -0.00082   0.00107   0.32291
 115        4PX        -0.00077   0.00031  -0.00084  -0.00004  -0.03515
 116        4PY        -0.00339   0.00097  -0.00300  -0.00018  -0.05099
 117        4PZ        -0.00200  -0.00168   0.00004  -0.00001   0.00094
 118        5PX         0.00189  -0.00089   0.00256  -0.00011   0.00222
 119        5PY         0.00255  -0.00085   0.00237   0.00083   0.00398
 120        5PZ         0.00006   0.00005   0.00003   0.00008   0.00028
 121 10  H  1S          0.00002  -0.00000  -0.00007  -0.00017   0.11635
 122        2S          0.00260  -0.00095   0.00295   0.00111   0.02025
 123 11  O  1S          0.00191  -0.00053   0.00171  -0.00008  -0.16512
 124        2S         -0.00443   0.00135  -0.00421   0.00048   0.35267
 125        3S         -0.00194   0.00013  -0.00082  -0.00107   0.32350
 126        4PX        -0.00077   0.00031  -0.00084   0.00004  -0.03502
 127        4PY         0.00339  -0.00096   0.00300  -0.00018   0.05124
 128        4PZ        -0.00200  -0.00168   0.00004   0.00001   0.00102
 129        5PX         0.00188  -0.00089   0.00256   0.00011   0.00226
 130        5PY        -0.00255   0.00085  -0.00237   0.00083  -0.00399
 131        5PZ         0.00005   0.00005   0.00003  -0.00008   0.00030
 132 12  H  1S          0.00002  -0.00000  -0.00007   0.00017   0.11656
 133        2S          0.00260  -0.00095   0.00295  -0.00111   0.02030
                          21        22        23        24        25
                           O         O         O         O         O
     Eigenvalues --    -0.96646  -0.92959  -0.91344  -0.90970  -0.90704
   1 1   Ti 1S          0.00000   0.10056  -0.00305   0.00000  -0.00665
   2        2S         -0.00001  -0.14074   0.00454  -0.00000   0.00905
   3        3S         -0.00003   0.07209   0.00827   0.00000  -0.01218
   4        4PX         0.00002   0.00205   0.13535  -0.00002   0.19575
   5        4PY        -0.00068  -0.00000  -0.00001  -0.15209  -0.00001
   6        4PZ         0.00000   0.03073   0.10766  -0.00001  -0.08447
   7        5PX         0.00008  -0.01248   0.04833  -0.00001   0.04855
   8        5PY         0.00510   0.00000   0.00000   0.02299  -0.00000
   9        5PZ        -0.00001  -0.00501  -0.02462   0.00000   0.00758
  10        6PX         0.00001  -0.00260   0.01764  -0.00000   0.00784
  11        6PY         0.00465   0.00000  -0.00000   0.00032  -0.00000
  12        6PZ        -0.00000  -0.00227   0.00093  -0.00000   0.00103
  13        7D 0       -0.00000  -0.02401   0.02447  -0.00000   0.03181
  14        7D+1        0.00000  -0.00453   0.07524  -0.00000  -0.03193
  15        7D-1        0.00003   0.00000  -0.00000  -0.01326   0.00000
  16        7D+2        0.00001   0.04045   0.01208  -0.00000   0.01874
  17        7D-2       -0.00034  -0.00000   0.00001   0.08689   0.00000
  18        8D 0        0.00000  -0.01172   0.00890  -0.00000   0.01166
  19        8D+1       -0.00000  -0.00948  -0.00655  -0.00000  -0.00027
  20        8D-1       -0.00001   0.00000  -0.00000  -0.00034   0.00000
  21        8D+2       -0.00001   0.02614   0.00418   0.00000   0.00563
  22        8D-2       -0.00716  -0.00000  -0.00000  -0.00934  -0.00000
  23 2   Ti 1S         -0.00000   0.03330  -0.02972   0.00000  -0.04255
  24        2S         -0.00000  -0.06940   0.04244  -0.00000   0.06391
  25        3S         -0.00005  -0.05314  -0.04143   0.00001  -0.02071
  26        4PX         0.00000   0.10133  -0.05759   0.00001  -0.08154
  27        4PY         0.00004   0.00000  -0.00001  -0.12728  -0.00001
  28        4PZ         0.00000  -0.02528   0.01778  -0.00000   0.02938
  29        5PX         0.00003   0.02980   0.03735  -0.00001   0.03560
  30        5PY        -0.00066   0.00000   0.00000   0.01928   0.00000
  31        5PZ        -0.00000   0.00059   0.00302   0.00000  -0.01178
  32        6PX        -0.00000   0.00071  -0.00454   0.00000  -0.00610
  33        6PY        -0.00169  -0.00000  -0.00000  -0.00579   0.00000
  34        6PZ        -0.00000  -0.00148  -0.00283   0.00000   0.00083
  35        7D 0       -0.00000  -0.02357   0.01286  -0.00000   0.01819
  36        7D+1       -0.00000  -0.00323  -0.00007  -0.00000  -0.00057
  37        7D-1       -0.00003   0.00000   0.00000   0.01029  -0.00000
  38        7D+2        0.00000   0.01292  -0.00622   0.00000  -0.00840
  39        7D-2        0.00015   0.00000  -0.00001  -0.07247  -0.00000
  40        8D 0        0.00000   0.00019   0.01012  -0.00000   0.00846
  41        8D+1        0.00000   0.00299  -0.00397  -0.00000   0.00518
  42        8D-1       -0.00021   0.00000   0.00000   0.00137   0.00000
  43        8D+2       -0.00000  -0.01298  -0.00627   0.00000  -0.00302
  44        8D-2        0.00010  -0.00000  -0.00000  -0.00438  -0.00000
  45 3   O  1S         -0.00011  -0.11413   0.06989   0.17268   0.10222
  46        2S          0.00074   0.23871  -0.14548  -0.35836  -0.21266
  47        3S         -0.00250   0.23937  -0.15160  -0.39046  -0.22200
  48        4PX         0.00010  -0.00360   0.00038   0.00269  -0.00226
  49        4PY         0.00012   0.04859  -0.02528  -0.05943  -0.03385
  50        4PZ         0.00004   0.00035   0.00343   0.00006  -0.00088
  51        5PX        -0.00006  -0.00302   0.00025   0.00115   0.00110
  52        5PY        -0.00081   0.01965  -0.01624  -0.04065  -0.02416
  53        5PZ        -0.00039   0.00134   0.00197  -0.00019  -0.00018
  54 4   O  1S          0.00011  -0.11413   0.06985  -0.17271   0.10220
  55        2S         -0.00072   0.23870  -0.14541   0.35841  -0.21264
  56        3S          0.00251   0.23936  -0.15153   0.39052  -0.22197
  57        4PX        -0.00010  -0.00360   0.00038  -0.00269  -0.00226
  58        4PY         0.00012  -0.04859   0.02527  -0.05944   0.03385
  59        4PZ        -0.00004   0.00035   0.00343  -0.00006  -0.00088
  60        5PX         0.00006  -0.00302   0.00025  -0.00115   0.00110
  61        5PY        -0.00081  -0.01965   0.01623  -0.04065   0.02416
  62        5PZ         0.00039   0.00134   0.00197   0.00019  -0.00018
  63 5   O  1S         -0.00002  -0.11657   0.08553  -0.00000  -0.19288
  64        2S          0.00004   0.24540  -0.17721   0.00001   0.40100
  65        3S          0.00003   0.23863  -0.19834   0.00001   0.42456
  66        4PX        -0.00000   0.00390  -0.00196  -0.00000  -0.00473
  67        4PY         0.00239  -0.00000   0.00000  -0.00405  -0.00000
  68        4PZ        -0.00001  -0.04982   0.03084  -0.00000  -0.06556
  69        5PX         0.00000  -0.00074  -0.00074  -0.00000   0.00141
  70        5PY         0.00111   0.00000   0.00000  -0.00164   0.00000
  71        5PZ        -0.00000  -0.01984   0.01993  -0.00000  -0.04545
  72 6   O  1S         -0.00002  -0.12779  -0.20447   0.00002  -0.00572
  73        2S          0.00004   0.26665   0.42482  -0.00004   0.01299
  74        3S          0.00004   0.27210   0.45705  -0.00004   0.00277
  75        4PX        -0.00000   0.00209  -0.00027   0.00000  -0.00188
  76        4PY         0.00214   0.00000   0.00000  -0.00349  -0.00000
  77        4PZ         0.00001   0.05312   0.07078  -0.00001   0.00172
  78        5PX        -0.00000   0.00269  -0.00136   0.00000   0.00031
  79        5PY         0.00099   0.00000   0.00000  -0.00128   0.00000
  80        5PZ         0.00000   0.02518   0.04968  -0.00000   0.00131
  81 7   O  1S          0.00000  -0.01297   0.01175  -0.00000   0.01931
  82        2S          0.00000   0.02914  -0.02480   0.00000  -0.04161
  83        3S         -0.00000   0.02130  -0.02467   0.00000  -0.03950
  84        4PX        -0.00000  -0.00183   0.00165  -0.00000   0.00315
  85        4PY        -0.00002   0.00000  -0.00000  -0.00249  -0.00000
  86        4PZ        -0.00000  -0.00759   0.00569  -0.00000   0.00842
  87        5PX         0.00000   0.00054   0.00214  -0.00000  -0.00037
  88        5PY         0.00016  -0.00000  -0.00000  -0.00162   0.00000
  89        5PZ         0.00000   0.00317  -0.00229   0.00000  -0.00024
  90 8   Ti 1S          0.00005   0.03424   0.02185  -0.00000   0.04219
  91        2S         -0.00008  -0.06485  -0.02831   0.00000  -0.05526
  92        3S          0.00006  -0.06874   0.03697  -0.00001   0.03612
  93        4PX         0.00007  -0.13379  -0.05717   0.00001  -0.10349
  94        4PY         0.16774  -0.00000   0.00000   0.00144  -0.00000
  95        4PZ        -0.00000  -0.00198   0.11573  -0.00001  -0.08196
  96        5PX         0.00004  -0.04049   0.03380  -0.00001   0.04951
  97        5PY        -0.01132  -0.00000   0.00000  -0.01215   0.00001
  98        5PZ         0.00000  -0.00301  -0.01386   0.00000   0.01239
  99        6PX         0.00000   0.00062  -0.00523   0.00000  -0.00575
 100        6PY        -0.00588  -0.00000   0.00000   0.00120   0.00000
 101        6PZ         0.00000   0.00196   0.00429  -0.00000  -0.00359
 102        7D 0       -0.00003   0.00883   0.00318  -0.00000   0.01140
 103        7D+1       -0.00000   0.00023  -0.06694   0.00000   0.04682
 104        7D-1        0.00134   0.00000   0.00000  -0.00002   0.00000
 105        7D+2       -0.00002   0.03671   0.01509  -0.00000   0.02646
 106        7D-2        0.05750  -0.00000  -0.00000  -0.00017  -0.00000
 107        8D 0       -0.00001   0.00997  -0.00035  -0.00000   0.00071
 108        8D+1        0.00000  -0.00171  -0.00090  -0.00000   0.00187
 109        8D-1       -0.00020  -0.00000  -0.00000  -0.00011  -0.00000
 110        8D+2        0.00002  -0.00832   0.00938  -0.00000   0.01699
 111        8D-2       -0.00811  -0.00000  -0.00000  -0.01187  -0.00001
 112 9   O  1S         -0.16569   0.01500   0.00478  -0.00017   0.00811
 113        2S          0.35256  -0.03101  -0.01059   0.00004  -0.01800
 114        3S          0.33302  -0.03415  -0.00850   0.00350  -0.01411
 115        4PX        -0.04286   0.00449   0.00156   0.00032   0.00292
 116        4PY        -0.05745   0.01132   0.00408  -0.00020   0.00786
 117        4PZ         0.00082  -0.00009   0.00212   0.00001  -0.00154
 118        5PX         0.00391  -0.00399  -0.00026  -0.00278  -0.00096
 119        5PY         0.01309  -0.00815  -0.00212   0.00115  -0.00527
 120        5PZ         0.00031  -0.00003   0.00179   0.00001  -0.00130
 121 10  H  1S          0.12058  -0.01351  -0.00455   0.00023  -0.00823
 122        2S          0.02605  -0.00679  -0.00174  -0.00219  -0.00378
 123 11  O  1S          0.16540   0.01500   0.00478   0.00017   0.00811
 124        2S         -0.35194  -0.03099  -0.01059  -0.00004  -0.01800
 125        3S         -0.33244  -0.03414  -0.00850  -0.00350  -0.01410
 126        4PX         0.04258   0.00446   0.00155  -0.00032   0.00291
 127        4PY        -0.05750  -0.01134  -0.00409  -0.00020  -0.00788
 128        4PZ        -0.00089  -0.00010   0.00212  -0.00001  -0.00155
 129        5PX        -0.00393  -0.00398  -0.00027   0.00278  -0.00097
 130        5PY         0.01307   0.00815   0.00213   0.00115   0.00529
 131        5PZ        -0.00032  -0.00003   0.00179  -0.00001  -0.00130
 132 12  H  1S         -0.12037  -0.01351  -0.00455  -0.00023  -0.00823
 133        2S         -0.02601  -0.00679  -0.00175   0.00219  -0.00380
                          26        27        28        29        30
                           O         O         O         O         O
     Eigenvalues --    -0.87164  -0.51841  -0.50865  -0.40751  -0.39562
   1 1   Ti 1S         -0.01319   0.00400  -0.00001   0.13732   0.02317
   2        2S          0.00726   0.00314  -0.00000  -0.09735  -0.01701
   3        3S         -0.01573  -0.02197  -0.00008   0.09901   0.02163
   4        4PX         0.02070  -0.00359   0.00000   0.00968   0.03244
   5        4PY        -0.00000  -0.00001  -0.00654   0.00000   0.00002
   6        4PZ        -0.00249   0.00035  -0.00000  -0.01527   0.06554
   7        5PX        -0.10297  -0.09492   0.00015  -0.01149   0.00160
   8        5PY         0.00000   0.00000   0.00462   0.00000  -0.00000
   9        5PZ         0.00062   0.00715  -0.00001   0.01432  -0.00578
  10        6PX        -0.02018  -0.00763   0.00003   0.00393  -0.00664
  11        6PY         0.00000  -0.00000  -0.01794   0.00000   0.00000
  12        6PZ         0.00153   0.00131  -0.00001  -0.01155   0.00724
  13        7D 0        0.00538   0.00531   0.00000  -0.12706  -0.03151
  14        7D+1        0.00058   0.00029  -0.00000  -0.08871   0.32202
  15        7D-1       -0.00000   0.00000  -0.00006   0.00000   0.00000
  16        7D+2        0.00141  -0.00294  -0.00001   0.23928   0.06649
  17        7D-2        0.00000  -0.00002  -0.01495  -0.00006  -0.00012
  18        8D 0        0.01302  -0.00032   0.00001  -0.07423  -0.02779
  19        8D+1        0.00451   0.00028   0.00000  -0.01780   0.04888
  20        8D-1       -0.00000   0.00000   0.00082  -0.00000  -0.00000
  21        8D+2       -0.00831   0.01269  -0.00002   0.13382   0.02986
  22        8D-2       -0.00000  -0.00002  -0.01374  -0.00002  -0.00002
  23 2   Ti 1S          0.07139   0.00555  -0.00001   0.04339  -0.00438
  24        2S         -0.09918   0.00161  -0.00000  -0.04483  -0.00078
  25        3S          0.06120   0.06992  -0.00008  -0.11884   0.00031
  26        4PX        -0.14604   0.00029  -0.00000   0.06456   0.01367
  27        4PY        -0.00000  -0.00000  -0.00103  -0.00001  -0.00003
  28        4PZ        -0.20170  -0.00116   0.00000  -0.00190  -0.02521
  29        5PX        -0.03983  -0.04625   0.00005   0.05660   0.00875
  30        5PY         0.00000   0.00001   0.00461   0.00001   0.00002
  31        5PZ         0.03460   0.00688  -0.00001  -0.01733   0.03344
  32        6PX         0.00278   0.00155  -0.00001   0.00506   0.00000
  33        6PY        -0.00000  -0.00000   0.00412  -0.00000  -0.00000
  34        6PZ        -0.00095   0.00154   0.00000   0.00274  -0.00743
  35        7D 0        0.06974  -0.00030   0.00000  -0.06581   0.01652
  36        7D+1        0.09044   0.00003   0.00000  -0.02608  -0.11399
  37        7D-1        0.00000   0.00000   0.00007   0.00000   0.00000
  38        7D+2        0.02577  -0.00103  -0.00000   0.12525  -0.03818
  39        7D-2        0.00000  -0.00000  -0.00138  -0.00002  -0.00006
  40        8D 0        0.00289  -0.00376   0.00000  -0.00699   0.01501
  41        8D+1        0.00105  -0.00415   0.00000   0.01265  -0.02746
  42        8D-1        0.00000   0.00000   0.00039  -0.00000  -0.00000
  43        8D+2        0.01120   0.00513  -0.00001   0.02406  -0.01378
  44        8D-2        0.00000  -0.00000  -0.00283  -0.00001  -0.00001
  45 3   O  1S          0.01838  -0.00022   0.00078   0.02505  -0.00026
  46        2S         -0.04011  -0.00029  -0.00056  -0.05226   0.00127
  47        3S         -0.03664   0.00234  -0.00683  -0.09872  -0.00459
  48        4PX         0.00185   0.00135  -0.00378  -0.00137   0.05262
  49        4PY        -0.00458  -0.00015   0.00261   0.26371  -0.00611
  50        4PZ        -0.00285  -0.00035   0.00114  -0.00242   0.18113
  51        5PX        -0.00230  -0.00166   0.00064  -0.01263   0.02084
  52        5PY        -0.00462  -0.00208  -0.00039   0.10126  -0.00675
  53        5PZ        -0.00088  -0.00028  -0.00025  -0.00041   0.08248
  54 4   O  1S          0.01838  -0.00022  -0.00078   0.02504  -0.00026
  55        2S         -0.04010  -0.00029   0.00057  -0.05226   0.00128
  56        3S         -0.03664   0.00236   0.00683  -0.09870  -0.00457
  57        4PX         0.00185   0.00136   0.00377  -0.00127   0.05285
  58        4PY         0.00458   0.00015   0.00262  -0.26368   0.00616
  59        4PZ        -0.00285  -0.00035  -0.00114  -0.00245   0.18108
  60        5PX        -0.00230  -0.00167  -0.00063  -0.01259   0.02094
  61        5PY         0.00462   0.00207  -0.00039  -0.10125   0.00676
  62        5PZ        -0.00088  -0.00028   0.00025  -0.00042   0.08245
  63 5   O  1S         -0.00498  -0.00450  -0.00000   0.02807   0.00547
  64        2S          0.01113   0.01108   0.00000  -0.05584  -0.01408
[...]
   4        4PX         0.00447  -0.03010  -0.04672
   5        4PY         0.00001  -0.00001  -0.00002
   6        4PZ         0.03815  -0.01077   0.03741
   7        5PX         2.81058   6.45942   5.84117
   8        5PY        -0.00014   0.00003  -0.00011
   9        5PZ        -0.05436  -0.64632  -0.12587
  10        6PX         0.36169   0.53189   0.31878
  11        6PY        -0.00015   0.00011  -0.00007
  12        6PZ        -0.19948  -0.17442  -0.05752
  13        7D 0        0.05753  -0.04619   0.01877
  14        7D+1        0.05357   0.01858   0.03523
  15        7D-1       -0.00000   0.00000  -0.00001
  16        7D+2       -0.10460   0.05971  -0.00127
  17        7D-2       -0.00001   0.00000   0.00002
  18        8D 0       -0.03160  -1.04822   0.33048
  19        8D+1       -0.33500  -0.82485   0.17621
  20        8D-1        0.00001   0.00002  -0.00001
  21        8D+2       -0.52972   0.75560  -1.59917
  22        8D-2        0.00037  -0.00027  -0.00045
  23 2   Ti 1S         -2.67484  -3.60582  -0.91629
  24        2S         -0.84477  -1.02955  -0.33122
  25        3S          0.58987  -3.40034  -1.17025
  26        4PX         0.07127   0.09834   0.03420
  27        4PY         0.00001   0.00000   0.00001
  28        4PZ        -0.24018  -0.15667  -0.00861
  29        5PX         0.40829   4.38993   0.45016
  30        5PY         0.00000   0.00005   0.00015
  31        5PZ        -0.45562  -0.80054  -0.37634
  32        6PX        -0.12584  -0.52652   0.09969
  33        6PY         0.00008  -0.00007  -0.00004
  34        6PZ         0.30159   0.19590   0.02509
  35        7D 0        0.01895  -0.08286   0.05841
  36        7D+1       -0.03779  -0.07676   0.00240
  37        7D-1       -0.00000  -0.00000  -0.00000
  38        7D+2       -0.05965   0.06498  -0.01947
  39        7D-2       -0.00001   0.00000   0.00001
  40        8D 0        0.03997   0.68845  -0.32305
  41        8D+1       -0.46129   0.03131  -0.12812
  42        8D-1        0.00000  -0.00001   0.00000
  43        8D+2       -0.19576  -0.87800   0.02983
  44        8D-2       -0.00001  -0.00004  -0.00010
  45 3   O  1S          0.00485   0.00166  -0.00130
  46        2S         -0.22396   0.32864  -0.13716
  47        3S          0.45276  -0.93706   0.37109
  48        4PX        -0.06374  -0.11100   0.03767
  49        4PY        -0.13936   0.01131  -0.10118
  50        4PZ         0.03934   0.04389  -0.00482
  51        5PX         0.29366   0.74583  -0.20973
  52        5PY         0.57053  -0.21287   0.73175
  53        5PZ        -0.12419  -0.17686   0.02850
  54 4   O  1S          0.00485   0.00166  -0.00130
  55        2S         -0.22384   0.32858  -0.13726
  56        3S          0.45234  -0.93683   0.37148
  57        4PX        -0.06371  -0.11101   0.03767
  58        4PY         0.13934  -0.01131   0.10117
  59        4PZ         0.03935   0.04388  -0.00483
  60        5PX         0.29365   0.74577  -0.20986
  61        5PY        -0.57042   0.21283  -0.73177
  62        5PZ        -0.12424  -0.17680   0.02859
  63 5   O  1S          0.00717   0.00136  -0.00171
  64        2S         -0.39808   0.24535  -0.15851
  65        3S          0.83360  -0.67912   0.48224
  66        4PX        -0.00066  -0.00324  -0.14674
  67        4PY         0.00001  -0.00000  -0.00003
  68        4PZ         0.07739  -0.15771  -0.01621
  69        5PX        -0.03606  -0.10195   1.07215
  70        5PY        -0.00012   0.00008   0.00021
  71        5PZ        -0.37589   0.90906  -0.02431
  72 6   O  1S          0.00661  -0.00211  -0.00142
  73        2S         -0.47407   0.07136  -0.10582
  74        3S          1.14875   0.04249   0.37339
  75        4PX         0.03126   0.02394  -0.11200
  76        4PY        -0.00001   0.00000  -0.00000
  77        4PZ        -0.08297   0.12538   0.00907
  78        5PX        -0.06023  -0.00742   0.86172
  79        5PY        -0.00001   0.00001   0.00005
  80        5PZ         0.42022  -0.68588   0.04926
  81 7   O  1S          0.01264   0.00031  -0.00091
  82        2S         -0.60996  -0.25003  -0.07868
  83        3S          1.38813   0.62015   0.31535
  84        4PX         0.02039   0.02221  -0.02981
  85        4PY         0.00000  -0.00000  -0.00000
  86        4PZ         0.18946   0.07829  -0.00372
  87        5PX        -0.09866  -0.07935   0.05710
  88        5PY        -0.00001   0.00000   0.00000
  89        5PZ        -0.73862  -0.51565   0.00552
  90 8   Ti 1S         -1.35012   2.51581   5.90009
  91        2S         -0.49852   0.90011   1.88424
  92        3S          3.13699   1.09351   2.07239
  93        4PX         0.05961   0.01563  -0.03608
  94        4PY         0.00007  -0.00003   0.00018
  95        4PZ         0.00375   0.01331   0.01559
  96        5PX         1.98042   0.63232   4.13786
  97        5PY         0.00028  -0.00017   0.00005
  98        5PZ         0.02474   0.03260   0.19032
  99        6PX        -0.08492   0.08305  -0.56457
 100        6PY         0.00008  -0.00002   0.00020
 101        6PZ         0.07436   0.09431  -0.01344
 102        7D 0        0.09281  -0.04542  -0.09572
 103        7D+1        0.00255   0.02376  -0.00123
 104        7D-1        0.00001  -0.00001  -0.00003
 105        7D+2       -0.04581   0.05489  -0.16847
 106        7D-2       -0.00002  -0.00000  -0.00008
 107        8D 0        0.05366  -0.40838  -0.66362
 108        8D+1       -0.01434  -0.00456   0.11512
 109        8D-1        0.00015  -0.00013  -0.00028
 110        8D+2        0.47489  -0.62126   0.79823
 111        8D-2        0.00057  -0.00040  -0.00092
 112 9   O  1S          0.00927   0.00056  -0.00156
 113        2S         -0.35542   0.21966   0.32981
 114        3S          0.72513  -0.64143  -0.74463
 115        4PX        -0.06562   0.05425   0.14199
 116        4PY        -0.14107   0.06156   0.16996
 117        4PZ         0.00091   0.00291   0.00298
 118        5PX         0.40571  -0.43695  -0.82131
 119        5PY         0.63909  -0.41677  -1.26054
 120        5PZ        -0.00125  -0.01378  -0.01138
 121 10  H  1S          0.08185  -0.00995  -0.15961
 122        2S          0.27174  -0.36479  -0.65867
 123 11  O  1S          0.00927   0.00057  -0.00157
 124        2S         -0.35578   0.21982   0.32966
 125        3S          0.72625  -0.64196  -0.74438
 126        4PX        -0.06544   0.05414   0.14194
 127        4PY         0.14104  -0.06161  -0.17027
 128        4PZ         0.00094   0.00287   0.00290
 129        5PX         0.40473  -0.43632  -0.82091
 130        5PY        -0.63901   0.41693   1.26266
 131        5PZ        -0.00147  -0.01359  -0.01089
 132 12  H  1S          0.08174  -0.00979  -0.15970
 133        2S          0.27098  -0.36460  -0.66047
          Condensed to atoms (all electrons):
 Mulliken charges:
               1
     1  Ti   1.430190
     2  Ti   1.359803
     3  O   -0.734392
     4  O   -0.734395
     5  O   -0.724101
     6  O   -0.731280
     7  O   -0.517507
     8  Ti   1.333993
     9  O   -0.765800
    10  H    0.424629
    11  O   -0.765775
    12  H    0.424635
 Sum of Mulliken charges =  -0.00000
 Mulliken charges with hydrogens summed into heavy atoms:
               1
     1  Ti   1.430190
     2  Ti   1.359803
     3  O   -0.734392
     4  O   -0.734395
     5  O   -0.724101
     6  O   -0.731280
     7  O   -0.517507
     8  Ti   1.333993
     9  O   -0.341172
    11  O   -0.341140
 Electronic spatial extent (au):  <R**2>=           2643.9241
 Charge=             -0.0000 electrons
 Dipole moment (field-independent basis, Debye):
    X=              0.3344    Y=              0.0033    Z=             -6.1101  Tot=              6.1193
 StAtR1:  DoIntr=F IAtCor=3 NETot=      94 Failed=F Sum=  3.00D+01 SumC=  0.00D+00
 There are a total of      307336 grid points.
 ElSum from          density=       94.0000076484
 ElSum from atomic densities=      124.0000402952

 Hirshfeld populations at iteration   1 (CX, CA, CB, DipXYZ):
               1          2          3          4          5          6
     1  Ti   0.000000   5.643719   5.643719   0.036281  -0.000021   0.188216
     2  Ti   0.000045   5.503007   5.503007   0.730141  -0.000005  -1.162821
     3  O    0.000017   4.206929   4.206929   0.004036   0.101757  -0.007618
     4  O    0.000017   4.206930   4.206930   0.004038  -0.101759  -0.007620
     5  O    0.000011   4.209786   4.209786   0.013991  -0.000005  -0.099808
     6  O    0.000011   4.205250   4.205250   0.001071  -0.000002   0.097584
     7  O    0.000049   4.225430   4.225430  -0.053973  -0.000001  -0.087681
     8  Ti   0.000000   5.653199   5.653199  -0.251723   0.000056  -0.014529
     9  O    0.000003   4.175761   4.175761  -0.120039  -0.168851   0.002993
    10  H    0.000041   0.397123   0.397123  -0.134031  -0.202611   0.000739
    11  O    0.000003   4.175751   4.175751  -0.119381   0.169296   0.003236
    12  H    0.000041   0.397119   0.397119  -0.133570   0.202919   0.000907
       Tot   0.000236  47.000004  47.000004  -0.023159   0.000773  -1.086402

 Dip from Atomic Chgs              0.154749   0.000540  -1.317466
         Total Dipole              0.131590   0.001313  -2.403868

 Hirshfeld charges, spin densities, dipoles, and CM5 charges using IRadAn=      5:
              Q-H        S-H        Dx         Dy         Dz        Q-CM5   
     1  Ti   0.712562   0.000000   0.036281  -0.000021   0.188216   1.351019
     2  Ti   0.993986   0.000000   0.730141  -0.000005  -1.162821   1.537233
     3  O   -0.413858   0.000000   0.004036   0.101757  -0.007618  -0.722829
     4  O   -0.413859   0.000000   0.004038  -0.101759  -0.007620  -0.722826
     5  O   -0.419572   0.000000   0.013991  -0.000005  -0.099808  -0.727010
     6  O   -0.410501   0.000000   0.001071  -0.000002   0.097584  -0.722781
     7  O   -0.450861   0.000000  -0.053973  -0.000001  -0.087681  -0.708156
     8  Ti   0.693601   0.000000  -0.251723   0.000056  -0.014529   1.378723
     9  O   -0.351521   0.000000  -0.120039  -0.168851   0.002993  -0.702428
    10  H    0.205754   0.000000  -0.134031  -0.202611   0.000739   0.370729
    11  O   -0.351502   0.000000  -0.119381   0.169296   0.003236  -0.702422
    12  H    0.205763   0.000000  -0.133570   0.202919   0.000907   0.370740
       Tot  -0.000008   0.000000  -0.023159   0.000773  -1.086402  -0.000008
 Hirshfeld charges with hydrogens summed into heavy atoms:
              Q-H       Q-CM5   
     1  Ti   0.712562   1.351019
     2  Ti   0.993986   1.537233
     3  O   -0.413858  -0.722829
     4  O   -0.413859  -0.722826
     5  O   -0.419572  -0.727010
     6  O   -0.410501  -0.722781
     7  O   -0.450861  -0.708156
     8  Ti   0.693601   1.378723
     9  O   -0.145767  -0.331699
    11  O   -0.145739  -0.331682
 
 EQQ=  0.00000000000     EQD=  0.00000000000     EDD= 0.187269155866E-01
 EQQ+QD+DD= 0.187269155866E-01
 
 Orbital energies and kinetic energies (alpha):
                                 1                 2
   1         O               -19.143612         29.124554
   2         O               -19.143599         29.124568
   3         O               -19.141461         29.126306
   4         O               -19.138089         29.126434
   5         O               -19.138088         29.126408
   6         O               -19.136525         29.126243
   7         O               -19.124502         29.127705
   8         O                -2.463381          1.344318
   9         O                -2.457029          1.341994
  10         O                -2.448244          1.341590
  11         O                -1.596449          2.304629
  12         O                -1.586833          2.376693
  13         O                -1.582224          2.368287
  14         O                -1.580004          2.376406
  15         O                -1.575819          2.377593
  16         O                -1.575003          2.374399
  17         O                -1.573476          2.381548
  18         O                -1.567089          2.405125
  19         O                -1.565423          2.389479
  20         O                -0.972700          2.777405
  21         O                -0.966462          2.821922
  22         O                -0.929586          2.906483
  23         O                -0.913442          3.065935
  24         O                -0.909704          3.073633
  25         O                -0.907036          3.066141
  26         O                -0.871642          3.141442
  27         O                -0.518412          2.164311
  28         O                -0.508654          2.302977
  29         O                -0.407508          2.295064
  30         O                -0.395615          2.497835
  31         O                -0.392791          2.508935
  32         O                -0.381171          2.356186
  33         O                -0.372631          2.286081
  34         O                -0.368443          2.256107
  35         O                -0.367013          2.178095
  36         O                -0.362918          2.182639
  37         O                -0.362393          2.318683
  38         O                -0.349805          2.231395
  39         O                -0.343840          2.278135
  40         O                -0.341368          2.186080
  41         O                -0.329464          2.524906
  42         O                -0.328261          2.409331
  43         O                -0.316947          2.396527
  44         O                -0.315022          2.345652
  45         O                -0.308117          2.398125
  46         O                -0.298224          2.400126
  47         O                -0.291012          2.395357
  48         V                -0.097740          3.642255
  49         V                -0.088785          3.702834
  50         V                -0.074757          3.624224
  51         V                -0.066088          3.596877
  52         V                -0.060684          3.679976
  53         V                -0.053376          2.979753
  54         V                -0.041363          4.045855
  55         V                -0.040898          3.843436
  56         V                -0.031144          3.680700
  57         V                -0.020888          3.525541
  58         V                -0.016641          3.701062
  59         V                -0.010621          3.803775
  60         V                -0.005483          1.015601
  61         V                -0.002329          3.207647
  62         V                 0.001745          2.913196
  63         V                 0.003129          2.654734
  64         V                 0.012099          1.716670
  65         V                 0.013523          0.756953
  66         V                 0.016992          1.936008
  67         V                 0.020402          0.614526
  68         V                 0.022793          0.543670
  69         V                 0.027701          0.312781
  70         V                 0.043131          0.232345
  71         V                 0.045075          0.292041
  72         V                 0.047647          0.255113
  73         V                 0.073652          0.675252
  74         V                 0.096798          0.741840
  75         V                 0.123676          0.830418
  76         V                 0.127171          0.834807
  77         V                 0.142728          0.917923
  78         V                 0.144035          0.895072
  79         V                 0.160082          1.190670
  80         V                 0.166713          1.056794
  81         V                 0.167568          1.178102
  82         V                 0.177936          1.127956
  83         V                 0.193020          0.961666
  84         V                 0.206020          1.210350
  85         V                 0.221072          1.151152
  86         V                 0.314779          1.452336
  87         V                 0.318140          1.461187
  88         V                 0.331972          1.447186
  89         V                 0.340900          1.471311
  90         V                 0.344803          1.373524
  91         V                 0.346781          1.599244
  92         V                 0.346805          1.467461
  93         V                 0.367831          1.485929
  94         V                 0.371048          1.355638
  95         V                 0.381650          1.461534
  96         V                 0.381774          1.344123
  97         V                 0.425326          2.165360
  98         V                 0.452976          1.650317
  99         V                 0.500621          1.574549
 100         V                 0.511065          1.678548
 101         V                 0.621546          2.033184
 102         V                 0.675910          2.843871
 103         V                 0.723533          2.877423
 104         V                 0.733976          2.953973
 105         V                 0.747986          2.884234
 106         V                 0.749593          2.879367
 107         V                 0.784236          2.865336
 108         V                 0.802720          3.027561
 109         V                 0.807380          2.895056
 110         V                 0.821075          3.251989
 111         V                 0.843502          2.949358
 112         V                 0.845446          2.816405
 113         V                 0.870359          2.912306
 114         V                 0.882466          3.091359
 115         V                 0.888532          2.922846
 116         V                 0.924332          3.010408
 117         V                 0.942184          2.949310
 118         V                 0.967431          3.058037
 119         V                 0.969188          3.331160
 120         V                 0.999454          3.208322
 121         V                 1.041528          2.963067
 122         V                 1.054255          2.957048
 123         V                 1.093158          3.346740
 124         V                 1.354186          3.785465
 125         V                 1.484190          3.993372
 126         V                 1.495916          4.105799
 127         V                 1.539983          4.345235
 128         V                 1.599217          4.216321
 129         V                 1.622843          4.184392
 130         V                 1.707694          4.200828
 131         V                 3.768397          2.424201
 132         V                11.075279          3.021437
 133         V                16.325102          4.159204
 Total kinetic energy from orbitals= 5.980595766087D+02

 Test job not archived.
 1\1\GINC-POP-OS\SP\RB3LYP\LANL2DZ\H2O7Ti3\RHEINHEIMER\07-Jun-2021\0\\#
 t B3LYP/LANL2DZ # SCRF=(Solvent=Ethanol) # Gfinput IOP(6/7=3) Pop=hirs
 hfeld Density Test # Units(Ang,Deg)\\3-tio2.pdb\\0,1\Ti,0,0.3241,-0.00
 001,0.0514\Ti,0,3.06784,-0.00001,-0.37437\O,0,1.6575,-1.23235,-0.15865
 \O,0,1.65749,1.23234,-0.15862\O,0,-1.10839,0.00003,1.27492\O,0,-1.0349
 7,-0.00001,-1.18611\O,0,3.93824,0.00001,1.02867\Ti,0,-2.45178,0.00001,
 0.02778\O,0,-3.36066,-1.53041,0.00496\H,0,-3.89599,-2.3362,0.00702\O,0
 ,-3.36086,1.53028,0.0048\H,0,-3.89444,2.33722,0.00749\\Version=ES64L-G
 16RevA.03\State=1-A\HF=-702.7218726\RMSD=9.132e-10\Dipole=0.1315572,0.
 0013124,-2.4039017\Quadrupole=13.8420977,-3.7590127,-10.083085,-0.0019
 96,-18.735626,0.0027992\PG=C01 [X(H2O7Ti3)]\\@


 NOT WHAT WE DID SHALL BE THE TEST
 WHEN ACT AND WILL ARE DONE,
 BUT WHAT OUR LORD INFERS WE WOULD-
 HAD WE DIVINER BEEN.
           EMILY DICKINSON  POEMS NO. CLXXV
 Job cpu time:       0 days  0 hours  3 minutes 50.8 seconds.
 Elapsed time:       0 days  0 hours  0 minutes 32.2 seconds.
 File lengths (MBytes):  RWF=     53 Int=      0 D2E=      0 Chk=      3 Scr=      1
 Normal termination of Gaussian 16 at Mon Jun  7 11:55:34 2021.
