 Entering Gaussian System, Link 0=g16
 Input=e-3-tio2-p_opt_g09.com
 Output=e-3-tio2-p_opt_g09.log
 Initial command:
 /home/rheinheimer/Apps//g16/l1.exe "/home/rheinheimer/Apps/scrgauss/Gau-900539.inp" -scrdir="/home/rheinheimer/Apps/scrgauss/"
 Entering Link 1 = /home/rheinheimer/Apps//g16/l1.exe PID=    900541.
  
 Copyright (c) 1988,1990,1992,1993,1995,1998,2003,2009,2016,
            Gaussian, Inc.  All Rights Reserved.
  
 This is part of the Gaussian(R) 16 program.  It is based on
 the Gaussian(R) 09 system (copyright 2009, Gaussian, Inc.),
 the Gaussian(R) 03 system (copyright 2003, Gaussian, Inc.),
 the Gaussian(R) 98 system (copyright 1998, Gaussian, Inc.),
 the Gaussian(R) 94 system (copyright 1995, Gaussian, Inc.),
 the Gaussian 92(TM) system (copyright 1992, Gaussian, Inc.),
 the Gaussian 90(TM) system (copyright 1990, Gaussian, Inc.),
 the Gaussian 88(TM) system (copyright 1988, Gaussian, Inc.),
 the Gaussian 86(TM) system (copyright 1986, Carnegie Mellon
 University), and the Gaussian 82(TM) system (copyright 1983,
 Carnegie Mellon University). Gaussian is a federally registered
 trademark of Gaussian, Inc.
  
 This software contains proprietary and confidential information,
 including trade secrets, belonging to Gaussian, Inc.
  
 This software is provided under written license and may be
 used, copied, transmitted, or stored only in accord with that
 written license.
  
 The following legend is applicable only to US Government
 contracts under FAR:
  
                    RESTRICTED RIGHTS LEGEND
  
 Use, reproduction and disclosure by the US Government is
 subject to restrictions as set forth in subparagraphs (a)
 and (c) of the Commercial Computer Software - Restricted
 Rights clause in FAR 52.227-19.
  
 Gaussian, Inc.
 340 Quinnipiac St., Bldg. 40, Wallingford CT 06492
  
  
 ---------------------------------------------------------------
 Warning -- This program may not be used in any manner that
 competes with the business of Gaussian, Inc. or will provide
 assistance to any competitor of Gaussian, Inc.  The licensee
 of this program is prohibited from giving any competitor of
 Gaussian, Inc. access to this program.  By using this program,
 the user acknowledges that Gaussian, Inc. is engaged in the
 business of creating and licensing software in the field of
 computational chemistry and represents and warrants to the
 licensee that it is not a competitor of Gaussian, Inc. and that
 it will not use this program in any manner prohibited above.
 ---------------------------------------------------------------
  

 Cite this work as:
 Gaussian 16, Revision A.03,
 M. J. Frisch, G. W. Trucks, H. B. Schlegel, G. E. Scuseria, 
 M. A. Robb, J. R. Cheeseman, G. Scalmani, V. Barone, 
 G. A. Petersson, H. Nakatsuji, X. Li, M. Caricato, A. V. Marenich, 
 J. Bloino, B. G. Janesko, R. Gomperts, B. Mennucci, H. P. Hratchian, 
 J. V. Ortiz, A. F. Izmaylov, J. L. Sonnenberg, D. Williams-Young, 
 F. Ding, F. Lipparini, F. Egidi, J. Goings, B. Peng, A. Petrone, 
 T. Henderson, D. Ranasinghe, V. G. Zakrzewski, J. Gao, N. Rega, 
 G. Zheng, W. Liang, M. Hada, M. Ehara, K. Toyota, R. Fukuda, 
 J. Hasegawa, M. Ishida, T. Nakajima, Y. Honda, O. Kitao, H. Nakai, 
 T. Vreven, K. Throssell, J. A. Montgomery, Jr., J. E. Peralta, 
 F. Ogliaro, M. J. Bearpark, J. J. Heyd, E. N. Brothers, K. N. Kudin, 
 V. N. Staroverov, T. A. Keith, R. Kobayashi, J. Normand, 
 K. Raghavachari, A. P. Rendell, J. C. Burant, S. S. Iyengar, 
 J. Tomasi, M. Cossi, J. M. Millam, M. Klene, C. Adamo, R. Cammi, 
 J. W. Ochterski, R. L. Martin, K. Morokuma, O. Farkas, 
 J. B. Foresman, and D. J. Fox, Gaussian, Inc., Wallingford CT, 2016.
 
 ******************************************
 Gaussian 16:  ES64L-G16RevA.03 25-Dec-2016
                 7-Jun-2021 
 ******************************************
 %nproc=8
 Will use up to    8 processors via shared memory.
 %Mem=4GB
 ----------------------------------------------------------------------
 #P B3LYP/LANL2DZ # Opt # SCRF=(Solvent=Ethanol) # Gfinput IOP(6/7=3) P
 op=Full Density Test # Units(Ang,Deg)
 ----------------------------------------------------------------------
 1/18=20,19=15,26=3,38=1/1,3;
 2/9=110,12=2,17=6,18=5,40=1/2;
 3/5=6,6=3,11=2,24=10,25=1,30=1,70=2201,71=1,72=4,74=-5/1,2,3;
 4//1;
 5/5=2,38=5,53=4/2;
 6/7=3,22=-1,28=1/1;
 7//1,2,3,16;
 1/18=20,19=15,26=3/3(2);
 2/9=110/2;
 99//99;
 2/9=110/2;
 3/5=6,6=3,11=2,25=1,30=1,70=2205,71=1,72=4,74=-5/1,2,3;
 4/5=5,16=3,69=1/1;
 5/5=2,38=5,53=4/2;
 7//1,2,3,16;
 1/18=20,19=15,26=3/3(-5);
 2/9=110/2;
 6/7=3,19=2,22=-1,28=1/1;
 99/9=1/99;
 Leave Link    1 at Mon Jun  7 11:37:40 2021, MaxMem=   536870912 cpu:               0.6 elap:               0.1
 (Enter /home/rheinheimer/Apps//g16/l101.exe)
 ----------
 3-tio2.pdb
 ----------
 Symbolic Z-matrix:
 Charge =  0 Multiplicity = 1
 Ti                    1.01806   1.28564  -0.01243 
 Ti                    3.74019   1.22378  -0.13295 
 O                     2.45142  -0.07676  -0.2411 
 O                     2.52575   2.57959   0.09912 
 O                    -0.1641    1.1501    1.34427 
 O                    -0.22983   1.49316  -1.29309 
 O                     5.37184   1.13241   0.14026 
 Ti                   -1.7259    1.36648   0.07436 
 O                    -2.68745  -0.09647  -0.09836 
 H                    -3.22717  -0.88613  -0.19008 
 O                    -2.59021   2.88268   0.29583 
 H                    -3.07864   3.70086   0.41884 
 
 Add atom      2 valence  4 ND=      0 dihedral       1      2      3      4
 Add atom      2 valence  4 ND=      0 dihedral       1      2      3      7
 Add atom      2 valence  4 ND=      0 dihedral       1      2      4      7
 ITRead=  0  0  0  0  0  0  0  0  0  0  0  0
 MicOpt= -1 -1 -1 -1 -1 -1 -1 -1 -1 -1 -1 -1
 NAtoms=     12 NQM=       12 NQMF=       0 NMMI=      0 NMMIF=      0
                NMic=       0 NMicF=      0.
                    Isotopes and Nuclear Properties:
 (Nuclear quadrupole moments (NQMom) in fm**2, nuclear magnetic moments (NMagM)
  in nuclear magnetons)

  Atom         1           2           3           4           5           6           7           8           9          10
 IAtWgt=          48          48          16          16          16          16          16          48          16           1
 AtmWgt=  47.9479467  47.9479467  15.9949146  15.9949146  15.9949146  15.9949146  15.9949146  47.9479467  15.9949146   1.0078250
 NucSpn=           0           0           0           0           0           0           0           0           0           1
 AtZEff=  -0.0000000  -0.0000000  -0.0000000  -0.0000000  -0.0000000  -0.0000000  -0.0000000  -0.0000000  -0.0000000  -0.0000000
 NQMom=    0.0000000   0.0000000   0.0000000   0.0000000   0.0000000   0.0000000   0.0000000   0.0000000   0.0000000   0.0000000
 NMagM=    0.0000000   0.0000000   0.0000000   0.0000000   0.0000000   0.0000000   0.0000000   0.0000000   0.0000000   2.7928460
 AtZNuc=  22.0000000  22.0000000   8.0000000   8.0000000   8.0000000   8.0000000   8.0000000  22.0000000   8.0000000   1.0000000

  Atom        11          12
 IAtWgt=          16           1
 AtmWgt=  15.9949146   1.0078250
 NucSpn=           0           1
 AtZEff=  -0.0000000  -0.0000000
 NQMom=    0.0000000   0.0000000
 NMagM=    0.0000000   2.7928460
 AtZNuc=   8.0000000   1.0000000
 Leave Link  101 at Mon Jun  7 11:37:40 2021, MaxMem=   536870912 cpu:               2.4 elap:               0.3
 (Enter /home/rheinheimer/Apps//g16/l103.exe)

 GradGradGradGradGradGradGradGradGradGradGradGradGradGradGradGradGradGrad
 Berny optimization.
 Initialization pass.
                           ----------------------------
                           !    Initial Parameters    !
                           ! (Angstroms and Degrees)  !
 --------------------------                            --------------------------
 ! Name  Definition              Value          Derivative Info.                !
 --------------------------------------------------------------------------------
 ! R1    R(1,2)                  2.7255         estimate D2E/DX2                !
 ! R2    R(1,3)                  1.9907         estimate D2E/DX2                !
 ! R3    R(1,4)                  1.9899         estimate D2E/DX2                !
 ! R4    R(1,5)                  1.8046         estimate D2E/DX2                !
 ! R5    R(1,6)                  1.8001         estimate D2E/DX2                !
 ! R6    R(1,8)                  2.7465         estimate D2E/DX2                !
 ! R7    R(2,3)                  1.8341         estimate D2E/DX2                !
 ! R8    R(2,4)                  1.8349         estimate D2E/DX2                !
 ! R9    R(2,7)                  1.6569         estimate D2E/DX2                !
 ! R10   R(5,8)                  2.0245         estimate D2E/DX2                !
 ! R11   R(6,8)                  2.0308         estimate D2E/DX2                !
 ! R12   R(8,9)                  1.7592         estimate D2E/DX2                !
 ! R13   R(8,11)                 1.7592         estimate D2E/DX2                !
 ! R14   R(9,10)                 0.9609         estimate D2E/DX2                !
 ! R15   R(11,12)                0.9608         estimate D2E/DX2                !
 ! A1    A(2,1,5)              133.3            estimate D2E/DX2                !
 ! A2    A(2,1,6)              131.5698         estimate D2E/DX2                !
 ! A3    A(3,1,4)               84.6018         estimate D2E/DX2                !
 ! A4    A(3,1,5)              120.44           estimate D2E/DX2                !
 ! A5    A(3,1,6)              119.7567         estimate D2E/DX2                !
 ! A6    A(3,1,8)              137.9983         estimate D2E/DX2                !
 ! A7    A(4,1,5)              120.2004         estimate D2E/DX2                !
 ! A8    A(4,1,6)              119.3504         estimate D2E/DX2                !
 ! A9    A(4,1,8)              137.3949         estimate D2E/DX2                !
 ! A10   A(5,1,6)               95.1288         estimate D2E/DX2                !
 ! A11   A(3,2,4)               93.8035         estimate D2E/DX2                !
 ! A12   A(3,2,7)              131.4968         estimate D2E/DX2                !
 ! A13   A(4,2,7)              132.1952         estimate D2E/DX2                !
 ! A14   A(1,8,9)              121.2322         estimate D2E/DX2                !
 ! A15   A(1,8,11)             121.3445         estimate D2E/DX2                !
 ! A16   A(5,8,6)               81.9942         estimate D2E/DX2                !
 ! A17   A(5,8,9)              113.2267         estimate D2E/DX2                !
 ! A18   A(5,8,11)             113.0885         estimate D2E/DX2                !
 ! A19   A(6,8,9)              112.8571         estimate D2E/DX2                !
 ! A20   A(6,8,11)             113.1374         estimate D2E/DX2                !
 ! A21   A(9,8,11)             117.4225         estimate D2E/DX2                !
 ! A22   L(2,1,8,6,-1)         179.2323         estimate D2E/DX2                !
 ! A23   L(1,2,7,3,-1)         178.4112         estimate D2E/DX2                !
 ! A24   L(8,9,10,3,-1)        181.0419         estimate D2E/DX2                !
 ! A25   L(8,11,12,4,-1)       181.1357         estimate D2E/DX2                !
 ! A26   L(2,1,8,6,-2)         180.3867         estimate D2E/DX2                !
 ! A27   L(1,2,7,3,-2)         196.3436         estimate D2E/DX2                !
 ! A28   L(8,9,10,3,-2)        179.9341         estimate D2E/DX2                !
 ! A29   L(8,11,12,4,-2)       180.2016         estimate D2E/DX2                !
 ! D1    D(3,1,8,9)              0.1494         estimate D2E/DX2                !
 ! D2    D(3,1,8,11)          -179.5134         estimate D2E/DX2                !
 ! D3    D(4,1,8,9)            179.0282         estimate D2E/DX2                !
 ! D4    D(4,1,8,11)            -0.6347         estimate D2E/DX2                !
 ! D5    D(1,2,3,4)             -0.4125         estimate D2E/DX2                !
 ! D6    D(1,2,3,7)           -163.6564         estimate D2E/DX2                !
 ! D7    D(1,2,4,7)            163.4671         estimate D2E/DX2                !
 --------------------------------------------------------------------------------
 Trust Radius=3.00D-01 FncErr=1.00D-07 GrdErr=1.00D-06 EigMax=2.50D+02 EigMin=1.00D-04
 Number of steps in this run=     61 maximum allowed number of steps=    100.
 GradGradGradGradGradGradGradGradGradGradGradGradGradGradGradGradGradGrad

 Leave Link  103 at Mon Jun  7 11:37:40 2021, MaxMem=   536870912 cpu:               0.1 elap:               0.0
 (Enter /home/rheinheimer/Apps//g16/l202.exe)
                          Input orientation:                          
 ---------------------------------------------------------------------
 Center     Atomic      Atomic             Coordinates (Angstroms)
 Number     Number       Type             X           Y           Z
 ---------------------------------------------------------------------
      1         22           0        1.018060    1.285640   -0.012430
      2         22           0        3.740190    1.223780   -0.132950
      3          8           0        2.451420   -0.076760   -0.241100
      4          8           0        2.525750    2.579590    0.099120
      5          8           0       -0.164100    1.150100    1.344270
      6          8           0       -0.229830    1.493160   -1.293090
      7          8           0        5.371840    1.132410    0.140260
      8         22           0       -1.725900    1.366480    0.074360
      9          8           0       -2.687450   -0.096470   -0.098360
     10          1           0       -3.227170   -0.886130   -0.190080
     11          8           0       -2.590210    2.882680    0.295830
     12          1           0       -3.078640    3.700860    0.418840
 ---------------------------------------------------------------------
                    Distance matrix (angstroms):
                    1          2          3          4          5
     1  Ti   0.000000
     2  Ti   2.725499   0.000000
     3  O    1.990715   1.834129   0.000000
     4  O    1.989945   1.834923   2.679080   0.000000
     5  O    1.804580   4.175055   3.295380   3.290765   0.000000
     6  O    1.800107   4.144822   3.280310   3.272889   2.660391
     7  O    4.359151   1.656887   3.183768   3.193157   5.665385
     8  Ti   2.746522   5.471881   4.430853   4.421400   2.024527
     9  O    3.955808   6.561921   5.140890   5.863254   3.162659
    10  H    4.771805   7.280047   5.736207   6.722421   3.985331
    11  O    3.957925   6.558183   5.870657   5.128704   3.160233
    12  H    4.775168   7.275771   6.729599   5.724391   3.982128
                    6          7          8          9         10
     6  O    0.000000
     7  O    5.793388   0.000000
     8  Ti   2.030811   7.101904   0.000000
     9  O    3.161360   8.155933   1.759157   0.000000
    10  H    3.982675   8.838925   2.719925   0.960871   0.000000
    11  O    3.166516   8.153643   1.759245   3.006689   3.853019
    12  H    3.990033   8.836580   2.719908   3.852303   4.629614
                   11         12
    11  O    0.000000
    12  H    0.960788   0.000000
 Stoichiometry    H2O7Ti3
 Framework group  C1[X(H2O7Ti3)]
 Deg. of freedom    30
 Full point group                 C1      NOp   1
 Largest Abelian subgroup         C1      NOp   1
 Largest concise Abelian subgroup C1      NOp   1
                         Standard orientation:                         
 ---------------------------------------------------------------------
 Center     Atomic      Atomic             Coordinates (Angstroms)
 Number     Number       Type             X           Y           Z
 ---------------------------------------------------------------------
      1         22           0        0.229641   -0.004576   -0.012382
      2         22           0        2.954329    0.003612   -0.078360
      3          8           0        1.706122   -1.339623   -0.036790
      4          8           0        1.696749    1.339424   -0.046069
      5          8           0       -0.975842    0.000958    1.330484
      6          8           0       -0.997043   -0.004926   -1.329815
      7          8           0        4.581955   -0.000250    0.231628
      8         22           0       -2.516715    0.000964    0.017313
      9          8           0       -3.431890   -1.501390    0.021596
     10          1           0       -3.946596   -2.312771    0.025059
     11          8           0       -3.428794    1.505296    0.023937
     12          1           0       -3.943059    2.316838    0.030613
 ---------------------------------------------------------------------
 Rotational constants (GHZ):           2.5479434           0.3063870           0.2917667
 Leave Link  202 at Mon Jun  7 11:37:40 2021, MaxMem=   536870912 cpu:               0.0 elap:               0.0
 (Enter /home/rheinheimer/Apps//g16/l301.exe)
 Standard basis: LANL2DZ (5D, 7F)
 Ernie: Thresh=  0.10000D-02 Tol=  0.10000D-05 Strict=F.
 Ernie:  3 primitive shells out of 167 were deleted.
 AO basis set in the form of general basis input (Overlap normalization):
      1 0
 S   3 1.00       0.000000000000
      0.1098000000D+01 -0.1023676994D+00
      0.4178000000D+00 -0.3753172148D+00
      0.8720000000D-01  0.1215423149D+01
 S   3 1.00       0.000000000000
      0.4372000000D+01 -0.3637098367D+00
      0.1098000000D+01  0.8184533826D+00
      0.4178000000D+00  0.4184526423D+00
 S   1 1.00       0.000000000000
      0.3140000000D-01  0.1000000000D+01
 P   3 1.00       0.000000000000
      0.1252000000D+02 -0.4569080054D-01
      0.1491000000D+01  0.6203313074D+00
      0.4859000000D+00  0.4765329057D+00
 P   1 1.00       0.000000000000
      0.5300000000D-01  0.1000000000D+01
 P   1 1.00       0.000000000000
      0.1600000000D-01  0.1000000000D+01
 D   4 1.00       0.000000000000
      0.2021000000D+02  0.3416819898D-01
      0.5495000000D+01  0.1710005949D+00
      0.1699000000D+01  0.4405848869D+00
      0.4840000000D+00  0.6114245818D+00
 D   1 1.00       0.000000000000
      0.1157000000D+00  0.1000000000D+01
 ****
      2 0
 S   3 1.00       0.000000000000
      0.1098000000D+01 -0.1023676994D+00
      0.4178000000D+00 -0.3753172148D+00
      0.8720000000D-01  0.1215423149D+01
 S   3 1.00       0.000000000000
      0.4372000000D+01 -0.3637098367D+00
      0.1098000000D+01  0.8184533826D+00
      0.4178000000D+00  0.4184526423D+00
 S   1 1.00       0.000000000000
      0.3140000000D-01  0.1000000000D+01
 P   3 1.00       0.000000000000
      0.1252000000D+02 -0.4569080054D-01
      0.1491000000D+01  0.6203313074D+00
      0.4859000000D+00  0.4765329057D+00
 P   1 1.00       0.000000000000
      0.5300000000D-01  0.1000000000D+01
 P   1 1.00       0.000000000000
      0.1600000000D-01  0.1000000000D+01
 D   4 1.00       0.000000000000
      0.2021000000D+02  0.3416819898D-01
      0.5495000000D+01  0.1710005949D+00
      0.1699000000D+01  0.4405848869D+00
      0.4840000000D+00  0.6114245818D+00
 D   1 1.00       0.000000000000
      0.1157000000D+00  0.1000000000D+01
 ****
      3 0
 S   7 1.00       0.000000000000
      0.7817000000D+04  0.1176000331D-02
      0.1176000000D+04  0.8968002523D-02
      0.2732000000D+03  0.4286801206D-01
      0.8117000000D+02  0.1439300405D+00
      0.2718000000D+02  0.3556301000D+00
      0.9532000000D+01  0.4612481297D+00
      0.3414000000D+01  0.1402060394D+00
 S   2 1.00       0.000000000000
      0.9532000000D+01 -0.1541530739D+00
      0.9398000000D+00  0.1056914507D+01
 S   1 1.00       0.000000000000
      0.2846000000D+00  0.1000000000D+01
 P   4 1.00       0.000000000000
      0.3518000000D+02  0.1958000050D-01
      0.7904000000D+01  0.1242000032D+00
      0.2305000000D+01  0.3947140101D+00
      0.7171000000D+00  0.6273760161D+00
 P   1 1.00       0.000000000000
      0.2137000000D+00  0.1000000000D+01
 ****
      4 0
 S   7 1.00       0.000000000000
      0.7817000000D+04  0.1176000331D-02
      0.1176000000D+04  0.8968002523D-02
      0.2732000000D+03  0.4286801206D-01
      0.8117000000D+02  0.1439300405D+00
      0.2718000000D+02  0.3556301000D+00
      0.9532000000D+01  0.4612481297D+00
      0.3414000000D+01  0.1402060394D+00
 S   2 1.00       0.000000000000
      0.9532000000D+01 -0.1541530739D+00
      0.9398000000D+00  0.1056914507D+01
 S   1 1.00       0.000000000000
      0.2846000000D+00  0.1000000000D+01
 P   4 1.00       0.000000000000
      0.3518000000D+02  0.1958000050D-01
      0.7904000000D+01  0.1242000032D+00
      0.2305000000D+01  0.3947140101D+00
      0.7171000000D+00  0.6273760161D+00
 P   1 1.00       0.000000000000
      0.2137000000D+00  0.1000000000D+01
 ****
      5 0
 S   7 1.00       0.000000000000
      0.7817000000D+04  0.1176000331D-02
      0.1176000000D+04  0.8968002523D-02
      0.2732000000D+03  0.4286801206D-01
      0.8117000000D+02  0.1439300405D+00
      0.2718000000D+02  0.3556301000D+00
      0.9532000000D+01  0.4612481297D+00
      0.3414000000D+01  0.1402060394D+00
 S   2 1.00       0.000000000000
      0.9532000000D+01 -0.1541530739D+00
      0.9398000000D+00  0.1056914507D+01
 S   1 1.00       0.000000000000
      0.2846000000D+00  0.1000000000D+01
 P   4 1.00       0.000000000000
      0.3518000000D+02  0.1958000050D-01
      0.7904000000D+01  0.1242000032D+00
      0.2305000000D+01  0.3947140101D+00
      0.7171000000D+00  0.6273760161D+00
 P   1 1.00       0.000000000000
      0.2137000000D+00  0.1000000000D+01
 ****
      6 0
 S   7 1.00       0.000000000000
      0.7817000000D+04  0.1176000331D-02
      0.1176000000D+04  0.8968002523D-02
      0.2732000000D+03  0.4286801206D-01
      0.8117000000D+02  0.1439300405D+00
      0.2718000000D+02  0.3556301000D+00
      0.9532000000D+01  0.4612481297D+00
      0.3414000000D+01  0.1402060394D+00
 S   2 1.00       0.000000000000
      0.9532000000D+01 -0.1541530739D+00
      0.9398000000D+00  0.1056914507D+01
 S   1 1.00       0.000000000000
      0.2846000000D+00  0.1000000000D+01
 P   4 1.00       0.000000000000
      0.3518000000D+02  0.1958000050D-01
      0.7904000000D+01  0.1242000032D+00
      0.2305000000D+01  0.3947140101D+00
      0.7171000000D+00  0.6273760161D+00
 P   1 1.00       0.000000000000
      0.2137000000D+00  0.1000000000D+01
 ****
      7 0
 S   7 1.00       0.000000000000
      0.7817000000D+04  0.1176000331D-02
      0.1176000000D+04  0.8968002523D-02
      0.2732000000D+03  0.4286801206D-01
      0.8117000000D+02  0.1439300405D+00
      0.2718000000D+02  0.3556301000D+00
      0.9532000000D+01  0.4612481297D+00
      0.3414000000D+01  0.1402060394D+00
 S   2 1.00       0.000000000000
      0.9532000000D+01 -0.1541530739D+00
      0.9398000000D+00  0.1056914507D+01
 S   1 1.00       0.000000000000
      0.2846000000D+00  0.1000000000D+01
 P   4 1.00       0.000000000000
      0.3518000000D+02  0.1958000050D-01
      0.7904000000D+01  0.1242000032D+00
      0.2305000000D+01  0.3947140101D+00
      0.7171000000D+00  0.6273760161D+00
 P   1 1.00       0.000000000000
      0.2137000000D+00  0.1000000000D+01
 ****
      8 0
 S   3 1.00       0.000000000000
      0.1098000000D+01 -0.1023676994D+00
      0.4178000000D+00 -0.3753172148D+00
      0.8720000000D-01  0.1215423149D+01
 S   3 1.00       0.000000000000
      0.4372000000D+01 -0.3637098367D+00
      0.1098000000D+01  0.8184533826D+00
      0.4178000000D+00  0.4184526423D+00
 S   1 1.00       0.000000000000
      0.3140000000D-01  0.1000000000D+01
 P   3 1.00       0.000000000000
      0.1252000000D+02 -0.4569080054D-01
      0.1491000000D+01  0.6203313074D+00
      0.4859000000D+00  0.4765329057D+00
 P   1 1.00       0.000000000000
      0.5300000000D-01  0.1000000000D+01
 P   1 1.00       0.000000000000
      0.1600000000D-01  0.1000000000D+01
 D   4 1.00       0.000000000000
      0.2021000000D+02  0.3416819898D-01
      0.5495000000D+01  0.1710005949D+00
      0.1699000000D+01  0.4405848869D+00
      0.4840000000D+00  0.6114245818D+00
 D   1 1.00       0.000000000000
      0.1157000000D+00  0.1000000000D+01
 ****
      9 0
 S   7 1.00       0.000000000000
      0.7817000000D+04  0.1176000331D-02
      0.1176000000D+04  0.8968002523D-02
      0.2732000000D+03  0.4286801206D-01
      0.8117000000D+02  0.1439300405D+00
      0.2718000000D+02  0.3556301000D+00
      0.9532000000D+01  0.4612481297D+00
      0.3414000000D+01  0.1402060394D+00
 S   2 1.00       0.000000000000
      0.9532000000D+01 -0.1541530739D+00
      0.9398000000D+00  0.1056914507D+01
 S   1 1.00       0.000000000000
      0.2846000000D+00  0.1000000000D+01
 P   4 1.00       0.000000000000
      0.3518000000D+02  0.1958000050D-01
      0.7904000000D+01  0.1242000032D+00
      0.2305000000D+01  0.3947140101D+00
      0.7171000000D+00  0.6273760161D+00
 P   1 1.00       0.000000000000
      0.2137000000D+00  0.1000000000D+01
 ****
     10 0
 S   3 1.00       0.000000000000
      0.1924060000D+02  0.3282807697D-01
      0.2899200000D+01  0.2312085421D+00
      0.6534000000D+00  0.8172399161D+00
 S   1 1.00       0.000000000000
      0.1776000000D+00  0.1000000000D+01
 ****
     11 0
 S   7 1.00       0.000000000000
      0.7817000000D+04  0.1176000331D-02
      0.1176000000D+04  0.8968002523D-02
      0.2732000000D+03  0.4286801206D-01
      0.8117000000D+02  0.1439300405D+00
      0.2718000000D+02  0.3556301000D+00
      0.9532000000D+01  0.4612481297D+00
      0.3414000000D+01  0.1402060394D+00
 S   2 1.00       0.000000000000
      0.9532000000D+01 -0.1541530739D+00
      0.9398000000D+00  0.1056914507D+01
 S   1 1.00       0.000000000000
      0.2846000000D+00  0.1000000000D+01
 P   4 1.00       0.000000000000
      0.3518000000D+02  0.1958000050D-01
      0.7904000000D+01  0.1242000032D+00
      0.2305000000D+01  0.3947140101D+00
      0.7171000000D+00  0.6273760161D+00
 P   1 1.00       0.000000000000
      0.2137000000D+00  0.1000000000D+01
 ****
     12 0
 S   3 1.00       0.000000000000
      0.1924060000D+02  0.3282807697D-01
      0.2899200000D+01  0.2312085421D+00
      0.6534000000D+00  0.8172399161D+00
 S   1 1.00       0.000000000000
      0.1776000000D+00  0.1000000000D+01
 ****

 Effective core potential in the form of general ECP input:
      1 0
 Ti1-ECP   2 10
 D component
  3
  1      265.3263909      -10.00000000    0.00000000
  2       47.7687815      -51.84278160    0.00000000
  2       11.8903334       -9.14291450    0.00000000
 S-D projection
  5
  0       81.4730696        3.00000000    0.00000000
  1       72.6496724       19.48255790    0.00000000
  2       31.8128213      207.33492790    0.00000000
  2        6.1664468      235.67445010    0.00000000
  2        5.8268347     -166.87843870    0.00000000
 P-D projection
  5
  0       50.2966943        5.00000000    0.00000000
  1       63.5089754        5.53488220    0.00000000
  2       26.0996084      177.84193840    0.00000000
  2        5.6022573      107.42071530    0.00000000
  2        5.2171069      -71.90659020    0.00000000
      2 0
 Ti2-ECP   2 10
 D component
  3
  1      265.3263909      -10.00000000    0.00000000
  2       47.7687815      -51.84278160    0.00000000
  2       11.8903334       -9.14291450    0.00000000
 S-D projection
  5
  0       81.4730696        3.00000000    0.00000000
  1       72.6496724       19.48255790    0.00000000
  2       31.8128213      207.33492790    0.00000000
  2        6.1664468      235.67445010    0.00000000
  2        5.8268347     -166.87843870    0.00000000
 P-D projection
  5
  0       50.2966943        5.00000000    0.00000000
  1       63.5089754        5.53488220    0.00000000
  2       26.0996084      177.84193840    0.00000000
  2        5.6022573      107.42071530    0.00000000
  2        5.2171069      -71.90659020    0.00000000
      8 0
 Ti8-ECP   2 10
 D component
  3
  1      265.3263909      -10.00000000    0.00000000
  2       47.7687815      -51.84278160    0.00000000
  2       11.8903334       -9.14291450    0.00000000
 S-D projection
  5
  0       81.4730696        3.00000000    0.00000000
  1       72.6496724       19.48255790    0.00000000
  2       31.8128213      207.33492790    0.00000000
  2        6.1664468      235.67445010    0.00000000
  2        5.8268347     -166.87843870    0.00000000
 P-D projection
  5
  0       50.2966943        5.00000000    0.00000000
  1       63.5089754        5.53488220    0.00000000
  2       26.0996084      177.84193840    0.00000000
  2        5.6022573      107.42071530    0.00000000
  2        5.2171069      -71.90659020    0.00000000
 
 There are   139 symmetry adapted cartesian basis functions of A   symmetry.
 There are   133 symmetry adapted basis functions of A   symmetry.
   133 basis functions,   339 primitive gaussians,   139 cartesian basis functions
    47 alpha electrons       47 beta electrons
       nuclear repulsion energy       693.2708032652 Hartrees.
 IExCor=  402 DFT=T Ex+Corr=B3LYP ExCW=0 ScaHFX=  0.200000
 ScaDFX=  0.800000  0.720000  1.000000  0.810000 ScalE2=  1.000000  1.000000
 IRadAn=      5 IRanWt=     -1 IRanGd=            0 ICorTp=0 IEmpDi=  4
 NAtoms=   12 NActive=   12 NUniq=   12 SFac= 1.00D+00 NAtFMM=   60 NAOKFM=F Big=F
 Integral buffers will be    131072 words long.
 Raffenetti 2 integral format.
 Two-electron integral symmetry is turned on.
 ------------------------------------------------------------------------------
 Polarizable Continuum Model (PCM)
 =================================
 Model                : PCM.
 Atomic radii         : UFF (Universal Force Field).
 Polarization charges : Total charges.
 Charge compensation  : None.
 Solution method      : On-the-fly selection.
 Cavity type          : Scaled VdW (van der Waals Surface) (Alpha=1.100).
 Cavity algorithm     : GePol (No added spheres)
                        Default sphere list used, NSphG=   12.
                        Lebedev-Laikov grids with approx.  5.0 points / Ang**2.
                        Smoothing algorithm: York/Karplus (Gamma=1.0000).
                        Polarization charges: spherical gaussians, with
                                              point-specific exponents (IZeta= 3).
                        Self-potential: point-specific (ISelfS= 7).
                        Self-field    : sphere-specific E.n sum rule (ISelfD= 2).
 1st derivatives      : Analytical E(r).r(x)/FMM algorithm (CHGder, D1EAlg=3).
                        Cavity 1st derivative terms included.
 Solvent              : Ethanol, Eps=  24.852000 Eps(inf)=   1.852593
 ------------------------------------------------------------------------------
 Spheres list:
 ISph  on   Nord     Re0    Alpha      Xe            Ye            Ze
    1  Ti      1    1.5875  1.100      0.229641     -0.004576     -0.012382
    2  Ti      2    1.5875  1.100      2.954329      0.003612     -0.078360
    3   O      3    1.7500  1.100      1.706122     -1.339623     -0.036790
    4   O      4    1.7500  1.100      1.696749      1.339424     -0.046069
    5   O      5    1.7500  1.100     -0.975842      0.000958      1.330484
    6   O      6    1.7500  1.100     -0.997043     -0.004926     -1.329815
    7   O      7    1.7500  1.100      4.581955     -0.000250      0.231628
    8  Ti      8    1.5875  1.100     -2.516715      0.000964      0.017313
    9   O      9    1.7500  1.100     -3.431890     -1.501390      0.021596
   10   H     10    1.4430  1.100     -3.946596     -2.312771      0.025059
   11   O     11    1.7500  1.100     -3.428794      1.505296      0.023937
   12   H     12    1.4430  1.100     -3.943059      2.316838      0.030613
 ------------------------------------------------------------------------------
 GePol: Number of generator spheres                  =      12
 GePol: Total number of spheres                      =      12
 GePol: Number of exposed spheres                    =      12 (100.00%)
 GePol: Number of points                             =    1649
 GePol: Average weight of points                     =       0.14
 GePol: Minimum weight of points                     =   0.77D-09
 GePol: Maximum weight of points                     =    0.21492
 GePol: Number of points with low weight             =      53
 GePol: Fraction of low-weight points (<1% of avg)   =       3.21%
 GePol: Cavity surface area                          =    227.031 Ang**2
 GePol: Cavity volume                                =    198.125 Ang**3
 Leave Link  301 at Mon Jun  7 11:37:41 2021, MaxMem=   536870912 cpu:               0.5 elap:               0.1
 (Enter /home/rheinheimer/Apps//g16/l302.exe)
 NPDir=0 NMtPBC=     1 NCelOv=     1 NCel=       1 NClECP=     1 NCelD=      1
         NCelK=      1 NCelE2=     1 NClLst=     1 CellRange=     0.0.
 One-electron integrals computed using PRISM.
 One-electron integral symmetry used in STVInt
   1 Symmetry operations used in ECPInt.
 ECPInt:  NShTT=    2016 NPrTT=   13777 LenC2=    1929 LenP2D=    9016.
 LDataN:  DoStor=T MaxTD1= 4 Len=   56
 NBasis=   133 RedAO= T EigKep=  1.22D-03  NBF=   133
 NBsUse=   133 1.00D-06 EigRej= -1.00D+00 NBFU=   133
 Precomputing XC quadrature grid using
 IXCGrd= 4 IRadAn=           5 IRanWt=          -1 IRanGd=           0 AccXCQ= 0.00D+00.
 Generated NRdTot=       0 NPtTot=           0 NUsed=           0 NTot=          32
 NSgBfM=   139   139   139   139   139 MxSgAt=    12 MxSgA2=    12.
 Leave Link  302 at Mon Jun  7 11:37:41 2021, MaxMem=   536870912 cpu:               3.3 elap:               0.4
 (Enter /home/rheinheimer/Apps//g16/l303.exe)
 DipDrv:  MaxL=1.
 Leave Link  303 at Mon Jun  7 11:37:41 2021, MaxMem=   536870912 cpu:               0.4 elap:               0.1
 (Enter /home/rheinheimer/Apps//g16/l401.exe)
 ExpMin= 1.60D-02 ExpMax= 7.82D+03 ExpMxC= 2.73D+02 IAcc=3 IRadAn=         5 AccDes= 0.00D+00
 Harris functional with IExCor=  402 and IRadAn=       5 diagonalized for initial guess.
 HarFok:  IExCor=  402 AccDes= 0.00D+00 IRadAn=         5 IDoV= 1 UseB2=F ITyADJ=14
 ICtDFT=  3500011 ScaDFX=  1.000000  1.000000  1.000000  1.000000
 FoFCou: FMM=F IPFlag=           0 FMFlag=      100000 FMFlg1=           0
         NFxFlg=           0 DoJE=T BraDBF=F KetDBF=T FulRan=T
         wScrn=  0.000000 ICntrl=       500 IOpCl=  0 I1Cent=   200000004 NGrid=           0
         NMat0=    1 NMatS0=      1 NMatT0=    0 NMatD0=    1 NMtDS0=    0 NMtDT0=    0
 Petite list used in FoFCou.
 Harris En= -703.116383477920    
 JPrj=0 DoOrth=F DoCkMO=F.
 Leave Link  401 at Mon Jun  7 11:37:42 2021, MaxMem=   536870912 cpu:               5.8 elap:               0.8
 (Enter /home/rheinheimer/Apps//g16/l502.exe)
 Keep R1 ints in memory in canonical form, NReq=47412208.
 FoFCou: FMM=F IPFlag=           0 FMFlag=           0 FMFlg1=           0
         NFxFlg=           0 DoJE=F BraDBF=F KetDBF=F FulRan=T
         wScrn=  0.000000 ICntrl=       600 IOpCl=  0 I1Cent=           0 NGrid=           0
         NMat0=    1 NMatS0=   8911 NMatT0=    0 NMatD0=    1 NMtDS0=    0 NMtDT0=    0
 Symmetry not used in FoFCou.
 Two-electron integral symmetry not used.
 Closed shell SCF:
 Using DIIS extrapolation, IDIIS=  1040.
 NGot=   536870912 LenX=   497122120 LenY=   497102358
 Requested convergence on RMS density matrix=1.00D-08 within 128 cycles.
 Requested convergence on MAX density matrix=1.00D-06.
 Requested convergence on             energy=1.00D-06.
 No special actions if energy rises.

 Cycle   1  Pass 1  IDiag  1:
 Inv3:  Mode=1 IEnd=     8157603.
 Iteration    1 A*A^-1 deviation from unit magnitude is 3.11D-15 for    914.
 Iteration    1 A*A^-1 deviation from orthogonality  is 1.75D-15 for    515    227.
 Iteration    1 A^-1*A deviation from unit magnitude is 2.66D-15 for    760.
 Iteration    1 A^-1*A deviation from orthogonality  is 5.63D-14 for   1434   1382.
 E= -700.664128270435    
 DIIS: error= 1.00D-01 at cycle   1 NSaved=   1.
 NSaved= 1 IEnMin= 1 EnMin= -700.664128270435     IErMin= 1 ErrMin= 1.00D-01
 ErrMax= 1.00D-01  0.00D+00 EMaxC= 1.00D-01 BMatC= 2.10D+00 BMatP= 2.10D+00
 IDIUse=3 WtCom= 0.00D+00 WtEn= 1.00D+00
 Coeff-Com:  0.100D+01
 Coeff-En:   0.100D+01
 Coeff:      0.100D+01
 Gap=    -0.300 Goal=   None    Shift=    0.000
 GapD=   -0.300 DampG=0.250 DampE=0.125 DampFc=0.1250 IDamp=-1.
 Damping current iteration by 1.25D-01
 RMSDP=3.56D-02 MaxDP=9.66D-01              OVMax= 9.21D-01

 Cycle   2  Pass 1  IDiag  1:
 E= -701.235970580699     Delta-E=       -0.571842310264 Rises=F Damp=T
 DIIS: error= 4.32D-02 at cycle   2 NSaved=   2.
 NSaved= 2 IEnMin= 2 EnMin= -701.235970580699     IErMin= 2 ErrMin= 4.32D-02
 ErrMax= 4.32D-02  0.00D+00 EMaxC= 1.00D-01 BMatC= 4.24D-01 BMatP= 2.10D+00
 IDIUse=3 WtCom= 5.68D-01 WtEn= 4.32D-01
 Coeff-Com: -0.630D+00 0.163D+01
 Coeff-En:   0.176D+00 0.824D+00
 Coeff:     -0.282D+00 0.128D+01
 Gap=     0.056 Goal=   None    Shift=    0.000
 RMSDP=9.40D-03 MaxDP=1.61D-01 DE=-5.72D-01 OVMax= 9.22D-01

 Cycle   3  Pass 1  IDiag  1:
 E= -702.243240007866     Delta-E=       -1.007269427168 Rises=F Damp=F
 DIIS: error= 6.02D-02 at cycle   3 NSaved=   3.
 NSaved= 3 IEnMin= 3 EnMin= -702.243240007866     IErMin= 2 ErrMin= 4.32D-02
 ErrMax= 6.02D-02  0.00D+00 EMaxC= 1.00D-01 BMatC= 3.94D-01 BMatP= 4.24D-01
 IDIUse=3 WtCom= 3.98D-01 WtEn= 6.02D-01
 Coeff-Com: -0.349D+00 0.986D+00 0.363D+00
 Coeff-En:   0.576D-01 0.000D+00 0.942D+00
 Coeff:     -0.104D+00 0.393D+00 0.712D+00
 Gap=     0.310 Goal=   None    Shift=    0.000
 RMSDP=8.31D-03 MaxDP=1.51D-01 DE=-1.01D+00 OVMax= 1.47D-01

 Cycle   4  Pass 1  IDiag  1:
 E= -702.517599162262     Delta-E=       -0.274359154396 Rises=F Damp=F
 DIIS: error= 3.57D-02 at cycle   4 NSaved=   4.
 NSaved= 4 IEnMin= 4 EnMin= -702.517599162262     IErMin= 4 ErrMin= 3.57D-02
 ErrMax= 3.57D-02  0.00D+00 EMaxC= 1.00D-01 BMatC= 1.57D-01 BMatP= 3.94D-01
 IDIUse=3 WtCom= 6.43D-01 WtEn= 3.57D-01
 Coeff-Com: -0.211D+00 0.630D+00 0.358D+00 0.223D+00
 Coeff-En:   0.000D+00 0.000D+00 0.244D+00 0.756D+00
 Coeff:     -0.136D+00 0.405D+00 0.317D+00 0.413D+00
 Gap=     0.208 Goal=   None    Shift=    0.000
 RMSDP=4.29D-03 MaxDP=1.01D-01 DE=-2.74D-01 OVMax= 1.31D-01

 Cycle   5  Pass 1  IDiag  1:
 E= -702.543070749531     Delta-E=       -0.025471587268 Rises=F Damp=F
 DIIS: error= 3.40D-02 at cycle   5 NSaved=   5.
 NSaved= 5 IEnMin= 5 EnMin= -702.543070749531     IErMin= 5 ErrMin= 3.40D-02
 ErrMax= 3.40D-02  0.00D+00 EMaxC= 1.00D-01 BMatC= 1.16D-01 BMatP= 1.57D-01
 IDIUse=3 WtCom= 6.60D-01 WtEn= 3.40D-01
 Coeff-Com: -0.153D+00 0.247D+00 0.153D+00 0.353D+00 0.400D+00
 Coeff-En:   0.000D+00 0.000D+00 0.000D+00 0.457D+00 0.543D+00
 Coeff:     -0.101D+00 0.163D+00 0.101D+00 0.388D+00 0.448D+00
 Gap=     0.159 Goal=   None    Shift=    0.000
 RMSDP=2.18D-03 MaxDP=7.51D-02 DE=-2.55D-02 OVMax= 8.85D-02

 Cycle   6  Pass 1  IDiag  1:
 E= -702.650760202621     Delta-E=       -0.107689453090 Rises=F Damp=F
 DIIS: error= 9.34D-03 at cycle   6 NSaved=   6.
 NSaved= 6 IEnMin= 6 EnMin= -702.650760202621     IErMin= 6 ErrMin= 9.34D-03
 ErrMax= 9.34D-03  0.00D+00 EMaxC= 1.00D-01 BMatC= 1.15D-02 BMatP= 1.16D-01
 IDIUse=3 WtCom= 9.07D-01 WtEn= 9.34D-02
 Coeff-Com: -0.760D-01 0.655D-01 0.939D-02 0.245D+00 0.375D+00 0.382D+00
 Coeff-En:   0.000D+00 0.000D+00 0.000D+00 0.000D+00 0.365D-01 0.964D+00
 Coeff:     -0.689D-01 0.594D-01 0.851D-02 0.222D+00 0.343D+00 0.436D+00
 Gap=     0.155 Goal=   None    Shift=    0.000
 RMSDP=8.56D-04 MaxDP=2.40D-02 DE=-1.08D-01 OVMax= 2.60D-02

 Cycle   7  Pass 1  IDiag  1:
 E= -702.657720998625     Delta-E=       -0.006960796005 Rises=F Damp=F
 DIIS: error= 5.19D-03 at cycle   7 NSaved=   7.
 NSaved= 7 IEnMin= 7 EnMin= -702.657720998625     IErMin= 7 ErrMin= 5.19D-03
 ErrMax= 5.19D-03  0.00D+00 EMaxC= 1.00D-01 BMatC= 3.51D-03 BMatP= 1.15D-02
 IDIUse=3 WtCom= 9.48D-01 WtEn= 5.19D-02
 Coeff-Com: -0.505D-01 0.574D-01-0.329D-01 0.250D-01 0.804D-01 0.299D+00
 Coeff-Com:  0.622D+00
 Coeff-En:   0.000D+00 0.000D+00 0.000D+00 0.000D+00 0.000D+00 0.268D+00
 Coeff-En:   0.732D+00
 Coeff:     -0.479D-01 0.544D-01-0.312D-01 0.237D-01 0.763D-01 0.297D+00
 Coeff:      0.627D+00
 Gap=     0.148 Goal=   None    Shift=    0.000
 RMSDP=2.41D-04 MaxDP=5.88D-03 DE=-6.96D-03 OVMax= 8.15D-03

 Cycle   8  Pass 1  IDiag  1:
 E= -702.659726916861     Delta-E=       -0.002005918236 Rises=F Damp=F
 DIIS: error= 3.13D-03 at cycle   8 NSaved=   8.
 NSaved= 8 IEnMin= 8 EnMin= -702.659726916861     IErMin= 8 ErrMin= 3.13D-03
 ErrMax= 3.13D-03  0.00D+00 EMaxC= 1.00D-01 BMatC= 1.40D-03 BMatP= 3.51D-03
 IDIUse=3 WtCom= 9.69D-01 WtEn= 3.13D-02
 Coeff-Com: -0.460D-01 0.604D-01-0.237D-01-0.498D-02 0.118D-01 0.169D+00
 Coeff-Com:  0.404D+00 0.430D+00
 Coeff-En:   0.000D+00 0.000D+00 0.000D+00 0.000D+00 0.000D+00 0.518D-01
 Coeff-En:   0.000D+00 0.948D+00
 Coeff:     -0.446D-01 0.585D-01-0.230D-01-0.482D-02 0.115D-01 0.165D+00
 Coeff:      0.391D+00 0.446D+00
 Gap=     0.150 Goal=   None    Shift=    0.000
 RMSDP=1.03D-04 MaxDP=2.93D-03 DE=-2.01D-03 OVMax= 3.31D-03

 Cycle   9  Pass 1  IDiag  1:
 E= -702.659540564567     Delta-E=        0.000186352294 Rises=F Damp=F
 DIIS: error= 3.69D-03 at cycle   9 NSaved=   9.
 NSaved= 9 IEnMin= 8 EnMin= -702.659726916861     IErMin= 8 ErrMin= 3.13D-03
 ErrMax= 3.69D-03  0.00D+00 EMaxC= 1.00D-01 BMatC= 1.64D-03 BMatP= 1.40D-03
 IDIUse=3 WtCom= 9.69D-01 WtEn= 3.13D-02
 Rare condition: small coef for last iteration:  0.000D+00
 Coeff-Com: -0.474D-01 0.639D-01-0.204D-01-0.669D-02 0.367D-02 0.131D+00
 Coeff-Com:  0.307D+00 0.366D+00 0.203D+00
 Coeff-En:   0.000D+00 0.000D+00 0.000D+00 0.000D+00 0.000D+00 0.699D-01
 Coeff-En:   0.000D+00 0.000D+00 0.930D+00
 Coeff:     -0.474D-01 0.639D-01-0.204D-01-0.669D-02 0.367D-02 0.131D+00
 Coeff:      0.307D+00 0.366D+00 0.203D+00
 Gap=     0.151 Goal=   None    Shift=    0.000
 RMSDP=4.83D-05 MaxDP=1.28D-03 DE= 1.86D-04 OVMax= 1.71D-03

 Cycle  10  Pass 1  IDiag  1:
 E= -702.658862647740     Delta-E=        0.000677916827 Rises=F Damp=F
 DIIS: error= 4.33D-03 at cycle  10 NSaved=  10.
 NSaved=10 IEnMin= 8 EnMin= -702.659726916861     IErMin= 8 ErrMin= 3.13D-03
 ErrMax= 4.33D-03  0.00D+00 EMaxC= 1.00D-01 BMatC= 2.28D-03 BMatP= 1.40D-03
 IDIUse=3 WtCom= 9.69D-01 WtEn= 3.13D-02
 EnCoef did   100 forward-backward iterations
 Rare condition: small coef for last iteration:  0.000D+00
 Coeff-Com: -0.180D-02 0.321D-02-0.370D-01-0.153D-01 0.390D-01 0.383D+00
 Coeff-Com:  0.114D+01 0.133D+01 0.196D+01-0.380D+01
 Coeff-En:   0.000D+00 0.000D+00 0.000D+00 0.000D+00 0.000D+00 0.135D+00
 Coeff-En:   0.000D+00 0.000D+00 0.000D+00 0.865D+00
 Coeff:     -0.180D-02 0.321D-02-0.370D-01-0.153D-01 0.390D-01 0.383D+00
 Coeff:      0.114D+01 0.133D+01 0.196D+01-0.380D+01
 Gap=     0.145 Goal=   None    Shift=    0.000
 RMSDP=2.94D-04 MaxDP=6.78D-03 DE= 6.78D-04 OVMax= 7.99D-03

 Cycle  11  Pass 1  IDiag  1:
 E= -702.661259190117     Delta-E=       -0.002396542377 Rises=F Damp=F
 DIIS: error= 3.19D-04 at cycle  11 NSaved=  11.
 NSaved=11 IEnMin=11 EnMin= -702.661259190117     IErMin=11 ErrMin= 3.19D-04
 ErrMax= 3.19D-04  0.00D+00 EMaxC= 1.00D-01 BMatC= 9.91D-06 BMatP= 1.40D-03
 IDIUse=3 WtCom= 9.97D-01 WtEn= 3.19D-03
 Coeff-Com:  0.898D-03 0.384D-04-0.452D-02-0.716D-02 0.313D-02 0.300D-01
 Coeff-Com:  0.176D+00 0.260D+00 0.665D+00-0.963D+00 0.840D+00
 Coeff-En:   0.000D+00 0.000D+00 0.000D+00 0.000D+00 0.000D+00 0.000D+00
 Coeff-En:   0.000D+00 0.000D+00 0.000D+00 0.000D+00 0.100D+01
 Coeff:      0.896D-03 0.383D-04-0.451D-02-0.713D-02 0.312D-02 0.299D-01
 Coeff:      0.175D+00 0.259D+00 0.663D+00-0.960D+00 0.841D+00
 Gap=     0.144 Goal=   None    Shift=    0.000
 RMSDP=3.06D-05 MaxDP=1.14D-03 DE=-2.40D-03 OVMax= 1.11D-03

 Cycle  12  Pass 1  IDiag  1:
 E= -702.661264400167     Delta-E=       -0.000005210050 Rises=F Damp=F
 DIIS: error= 1.99D-04 at cycle  12 NSaved=  12.
 NSaved=12 IEnMin=12 EnMin= -702.661264400167     IErMin=12 ErrMin= 1.99D-04
 ErrMax= 1.99D-04  0.00D+00 EMaxC= 1.00D-01 BMatC= 7.01D-06 BMatP= 9.91D-06
 IDIUse=3 WtCom= 9.98D-01 WtEn= 1.99D-03
 Coeff-Com:  0.139D-03 0.468D-03 0.109D-03-0.278D-02 0.265D-03-0.130D-01
 Coeff-Com:  0.297D-01 0.829D-01 0.359D+00-0.408D+00 0.673D+00 0.278D+00
 Coeff-En:   0.000D+00 0.000D+00 0.000D+00 0.000D+00 0.000D+00 0.000D+00
 Coeff-En:   0.000D+00 0.000D+00 0.000D+00 0.000D+00 0.347D+00 0.653D+00
 Coeff:      0.139D-03 0.467D-03 0.109D-03-0.277D-02 0.265D-03-0.130D-01
 Coeff:      0.296D-01 0.828D-01 0.359D+00-0.407D+00 0.673D+00 0.279D+00
 Gap=     0.145 Goal=   None    Shift=    0.000
 RMSDP=1.54D-05 MaxDP=4.85D-04 DE=-5.21D-06 OVMax= 5.21D-04

 Cycle  13  Pass 1  IDiag  1:
 E= -702.661270945794     Delta-E=       -0.000006545627 Rises=F Damp=F
 DIIS: error= 2.47D-05 at cycle  13 NSaved=  13.
 NSaved=13 IEnMin=13 EnMin= -702.661270945794     IErMin=13 ErrMin= 2.47D-05
 ErrMax= 2.47D-05  0.00D+00 EMaxC= 1.00D-01 BMatC= 8.43D-08 BMatP= 7.01D-06
 IDIUse=1 WtCom= 1.00D+00 WtEn= 0.00D+00
 Coeff-Com:  0.563D-04 0.213D-04 0.553D-03-0.464D-03-0.588D-03-0.912D-02
 Coeff-Com: -0.932D-02-0.245D-02 0.581D-01-0.417D-01 0.170D+00 0.119D+00
 Coeff-Com:  0.716D+00
 Coeff:      0.563D-04 0.213D-04 0.553D-03-0.464D-03-0.588D-03-0.912D-02
 Coeff:     -0.932D-02-0.245D-02 0.581D-01-0.417D-01 0.170D+00 0.119D+00
 Coeff:      0.716D+00
 Gap=     0.145 Goal=   None    Shift=    0.000
 RMSDP=2.25D-06 MaxDP=9.86D-05 DE=-6.55D-06 OVMax= 9.04D-05

 Cycle  14  Pass 1  IDiag  1:
 E= -702.661271035925     Delta-E=       -0.000000090130 Rises=F Damp=F
 DIIS: error= 5.85D-06 at cycle  14 NSaved=  14.
 NSaved=14 IEnMin=14 EnMin= -702.661271035925     IErMin=14 ErrMin= 5.85D-06
 ErrMax= 5.85D-06  0.00D+00 EMaxC= 1.00D-01 BMatC= 5.74D-09 BMatP= 8.43D-08
 IDIUse=1 WtCom= 1.00D+00 WtEn= 0.00D+00
 Coeff-Com:  0.124D-04-0.180D-04 0.167D-03 0.403D-05-0.279D-03-0.206D-02
 Coeff-Com: -0.510D-02-0.640D-02-0.262D-02 0.119D-01 0.179D-01 0.252D-01
 Coeff-Com:  0.236D+00 0.726D+00
 Coeff:      0.124D-04-0.180D-04 0.167D-03 0.403D-05-0.279D-03-0.206D-02
 Coeff:     -0.510D-02-0.640D-02-0.262D-02 0.119D-01 0.179D-01 0.252D-01
 Coeff:      0.236D+00 0.726D+00
 Gap=     0.145 Goal=   None    Shift=    0.000
 RMSDP=9.28D-07 MaxDP=2.98D-05 DE=-9.01D-08 OVMax= 2.86D-05

 Cycle  15  Pass 1  IDiag  1:
 E= -702.661271034794     Delta-E=        0.000000001131 Rises=F Damp=F
 DIIS: error= 5.27D-06 at cycle  15 NSaved=  15.
 NSaved=15 IEnMin=14 EnMin= -702.661271035925     IErMin=15 ErrMin= 5.27D-06
 ErrMax= 5.27D-06  0.00D+00 EMaxC= 1.00D-01 BMatC= 9.69D-09 BMatP= 5.74D-09
 IDIUse=1 WtCom= 1.00D+00 WtEn= 0.00D+00
 Coeff-Com: -0.361D-06-0.195D-04 0.222D-05 0.106D-03-0.138D-03 0.592D-03
 Coeff-Com: -0.225D-02-0.536D-02-0.184D-01 0.228D-01-0.297D-01-0.961D-02
 Coeff-Com:  0.180D-01 0.662D+00 0.362D+00
 Coeff:     -0.361D-06-0.195D-04 0.222D-05 0.106D-03-0.138D-03 0.592D-03
 Coeff:     -0.225D-02-0.536D-02-0.184D-01 0.228D-01-0.297D-01-0.961D-02
 Coeff:      0.180D-01 0.662D+00 0.362D+00
 Gap=     0.145 Goal=   None    Shift=    0.000
 RMSDP=5.49D-07 MaxDP=1.97D-05 DE= 1.13D-09 OVMax= 1.81D-05

 Cycle  16  Pass 1  IDiag  1:
 E= -702.661271043256     Delta-E=       -0.000000008462 Rises=F Damp=F
 DIIS: error= 8.37D-07 at cycle  16 NSaved=  16.
 NSaved=16 IEnMin=16 EnMin= -702.661271043256     IErMin=16 ErrMin= 8.37D-07
 ErrMax= 8.37D-07  0.00D+00 EMaxC= 1.00D-01 BMatC= 8.82D-11 BMatP= 5.74D-09
 IDIUse=1 WtCom= 1.00D+00 WtEn= 0.00D+00
 Coeff-Com: -0.371D-05 0.950D-06-0.381D-05 0.376D-04-0.224D-04 0.251D-03
 Coeff-Com: -0.488D-03-0.112D-02-0.456D-02 0.557D-02-0.872D-02-0.459D-02
 Coeff-Com: -0.646D-02 0.133D+00 0.979D-01 0.790D+00
 Coeff:     -0.371D-05 0.950D-06-0.381D-05 0.376D-04-0.224D-04 0.251D-03
 Coeff:     -0.488D-03-0.112D-02-0.456D-02 0.557D-02-0.872D-02-0.459D-02
 Coeff:     -0.646D-02 0.133D+00 0.979D-01 0.790D+00
 Gap=     0.145 Goal=   None    Shift=    0.000
 RMSDP=1.10D-07 MaxDP=2.51D-06 DE=-8.46D-09 OVMax= 3.59D-06

 Cycle  17  Pass 1  IDiag  1:
 E= -702.661271043306     Delta-E=       -0.000000000050 Rises=F Damp=F
 DIIS: error= 8.50D-07 at cycle  17 NSaved=  17.
 NSaved=17 IEnMin=17 EnMin= -702.661271043306     IErMin=16 ErrMin= 8.37D-07
 ErrMax= 8.50D-07  0.00D+00 EMaxC= 1.00D-01 BMatC= 7.19D-11 BMatP= 8.82D-11
 IDIUse=1 WtCom= 1.00D+00 WtEn= 0.00D+00
 Coeff-Com: -0.297D-05 0.452D-05-0.278D-05 0.107D-04 0.736D-05 0.844D-04
 Coeff-Com:  0.134D-04 0.991D-04-0.207D-03 0.195D-03-0.142D-02-0.187D-02
 Coeff-Com: -0.818D-02-0.166D-01 0.108D-01 0.622D+00 0.395D+00
 Coeff:     -0.297D-05 0.452D-05-0.278D-05 0.107D-04 0.736D-05 0.844D-04
 Coeff:      0.134D-04 0.991D-04-0.207D-03 0.195D-03-0.142D-02-0.187D-02
 Coeff:     -0.818D-02-0.166D-01 0.108D-01 0.622D+00 0.395D+00
 Gap=     0.145 Goal=   None    Shift=    0.000
 RMSDP=4.79D-08 MaxDP=1.65D-06 DE=-5.02D-11 OVMax= 1.80D-06

 Cycle  18  Pass 1  IDiag  1:
 E= -702.661271043360     Delta-E=       -0.000000000053 Rises=F Damp=F
 DIIS: error= 3.42D-07 at cycle  18 NSaved=  18.
 NSaved=18 IEnMin=18 EnMin= -702.661271043360     IErMin=18 ErrMin= 3.42D-07
 ErrMax= 3.42D-07  0.00D+00 EMaxC= 1.00D-01 BMatC= 1.22D-11 BMatP= 7.19D-11
 IDIUse=1 WtCom= 1.00D+00 WtEn= 0.00D+00
 Coeff-Com: -0.474D-06 0.964D-06-0.298D-06-0.276D-06 0.505D-05-0.162D-06
 Coeff-Com:  0.581D-04 0.152D-03 0.335D-03-0.517D-03 0.332D-03-0.813D-04
 Coeff-Com: -0.199D-02-0.169D-01-0.567D-02 0.134D+00 0.127D+00 0.764D+00
 Coeff:     -0.474D-06 0.964D-06-0.298D-06-0.276D-06 0.505D-05-0.162D-06
 Coeff:      0.581D-04 0.152D-03 0.335D-03-0.517D-03 0.332D-03-0.813D-04
 Coeff:     -0.199D-02-0.169D-01-0.567D-02 0.134D+00 0.127D+00 0.764D+00
 Gap=     0.145 Goal=   None    Shift=    0.000
 RMSDP=1.91D-08 MaxDP=6.65D-07 DE=-5.34D-11 OVMax= 6.19D-07

 Cycle  19  Pass 1  IDiag  1:
 E= -702.661271043368     Delta-E=       -0.000000000008 Rises=F Damp=F
 DIIS: error= 6.74D-08 at cycle  19 NSaved=  19.
 NSaved=19 IEnMin=19 EnMin= -702.661271043368     IErMin=19 ErrMin= 6.74D-08
 ErrMax= 6.74D-08  0.00D+00 EMaxC= 1.00D-01 BMatC= 4.62D-13 BMatP= 1.22D-11
 IDIUse=1 WtCom= 1.00D+00 WtEn= 0.00D+00
 Coeff-Com:  0.248D-07 0.516D-07 0.246D-06-0.101D-05 0.112D-05-0.745D-05
 Coeff-Com:  0.180D-04 0.355D-04 0.102D-03-0.167D-03 0.194D-03 0.146D-03
 Coeff-Com:  0.761D-04-0.325D-02-0.244D-02-0.987D-02 0.333D-02 0.176D+00
 Coeff-Com:  0.836D+00
 Coeff:      0.248D-07 0.516D-07 0.246D-06-0.101D-05 0.112D-05-0.745D-05
 Coeff:      0.180D-04 0.355D-04 0.102D-03-0.167D-03 0.194D-03 0.146D-03
 Coeff:      0.761D-04-0.325D-02-0.244D-02-0.987D-02 0.333D-02 0.176D+00
 Coeff:      0.836D+00
 Gap=     0.145 Goal=   None    Shift=    0.000
 RMSDP=4.84D-09 MaxDP=1.59D-07 DE=-8.30D-12 OVMax= 1.45D-07

 Error on total polarization charges =  0.02427
 SCF Done:  E(RB3LYP) =  -702.661271043     A.U. after   19 cycles
            NFock= 19  Conv=0.48D-08     -V/T= 2.1757
 KE= 5.976450366845D+02 PE=-2.998661386787D+03 EE= 1.005084275793D+03
 Leave Link  502 at Mon Jun  7 11:38:12 2021, MaxMem=   536870912 cpu:             209.4 elap:              29.9
 (Enter /home/rheinheimer/Apps//g16/l601.exe)
 Copying SCF densities to generalized density rwf, IOpCl= 0 IROHF=0.

 **********************************************************************

            Population analysis using the SCF density.

 **********************************************************************

 Orbital symmetries:
       Occupied  (A) (A) (A) (A) (A) (A) (A) (A) (A) (A) (A) (A)
                 (A) (A) (A) (A) (A) (A) (A) (A) (A) (A) (A) (A)
                 (A) (A) (A) (A) (A) (A) (A) (A) (A) (A) (A) (A)
                 (A) (A) (A) (A) (A) (A) (A) (A) (A) (A) (A)
       Virtual   (A) (A) (A) (A) (A) (A) (A) (A) (A) (A) (A) (A)
                 (A) (A) (A) (A) (A) (A) (A) (A) (A) (A) (A) (A)
                 (A) (A) (A) (A) (A) (A) (A) (A) (A) (A) (A) (A)
                 (A) (A) (A) (A) (A) (A) (A) (A) (A) (A) (A) (A)
                 (A) (A) (A) (A) (A) (A) (A) (A) (A) (A) (A) (A)
                 (A) (A) (A) (A) (A) (A) (A) (A) (A) (A) (A) (A)
                 (A) (A) (A) (A) (A) (A) (A) (A) (A) (A) (A) (A)
                 (A) (A)
 The electronic state is 1-A.
 Alpha  occ. eigenvalues --  -19.17588 -19.17583 -19.16320 -19.16261 -19.13150
 Alpha  occ. eigenvalues --  -19.13133 -19.10094  -2.50886  -2.46890  -2.43492
 Alpha  occ. eigenvalues --   -1.63295  -1.62900  -1.62088  -1.59522  -1.59022
 Alpha  occ. eigenvalues --   -1.58353  -1.56409  -1.55544  -1.55450  -1.00318
 Alpha  occ. eigenvalues --   -0.99709  -0.93228  -0.92575  -0.90423  -0.89731
 Alpha  occ. eigenvalues --   -0.84918  -0.55015  -0.54201  -0.41309  -0.39169
 Alpha  occ. eigenvalues --   -0.38828  -0.38387  -0.38300  -0.38089  -0.37755
 Alpha  occ. eigenvalues --   -0.36503  -0.36025  -0.35355  -0.35216  -0.34804
 Alpha  occ. eigenvalues --   -0.34657  -0.33186  -0.32319  -0.31172  -0.29668
 Alpha  occ. eigenvalues --   -0.28999  -0.27741
 Alpha virt. eigenvalues --   -0.13288  -0.11245  -0.10096  -0.08416  -0.08126
 Alpha virt. eigenvalues --   -0.08044  -0.07355  -0.07299  -0.05348  -0.04212
 Alpha virt. eigenvalues --   -0.03984  -0.02719  -0.01491  -0.00841   0.00068
 Alpha virt. eigenvalues --    0.00366   0.01090   0.01712   0.01968   0.02363
 Alpha virt. eigenvalues --    0.02598   0.03908   0.04577   0.04855   0.04922
 Alpha virt. eigenvalues --    0.08643   0.09669   0.10565   0.11751   0.12186
 Alpha virt. eigenvalues --    0.13760   0.15261   0.16137   0.16606   0.16882
 Alpha virt. eigenvalues --    0.19509   0.20059   0.22512   0.30217   0.31040
 Alpha virt. eigenvalues --    0.31805   0.32659   0.33393   0.33710   0.33831
 Alpha virt. eigenvalues --    0.35492   0.36413   0.37178   0.39976   0.41844
 Alpha virt. eigenvalues --    0.46777   0.50071   0.51933   0.62616   0.67474
 Alpha virt. eigenvalues --    0.71227   0.72437   0.73510   0.75266   0.78676
 Alpha virt. eigenvalues --    0.78712   0.82443   0.82605   0.83127   0.84183
 Alpha virt. eigenvalues --    0.87042   0.87803   0.89134   0.90168   0.92897
 Alpha virt. eigenvalues --    0.95105   0.95738   0.97266   1.02587   1.03165
 Alpha virt. eigenvalues --    1.07516   1.36602   1.48294   1.48365   1.52279
 Alpha virt. eigenvalues --    1.59930   1.63235   1.82710   4.42092  16.18754
 Alpha virt. eigenvalues --   21.65326
     Molecular Orbital Coefficients:
                           1         2         3         4         5
                           O         O         O         O         O
     Eigenvalues --   -19.17588 -19.17583 -19.16320 -19.16261 -19.13150
   1 1   Ti 1S         -0.00002  -0.00002   0.00088   0.00093   0.00074
   2        2S          0.00006   0.00006   0.00027   0.00028   0.00015
   3        3S          0.00027   0.00026  -0.00055  -0.00048  -0.00060
   4        4PX        -0.00003  -0.00003  -0.00012  -0.00012   0.00004
   5        4PY         0.00000  -0.00000  -0.00000   0.00000  -0.00012
   6        4PZ         0.00000   0.00000  -0.00017   0.00018  -0.00000
   7        5PX         0.00021   0.00019  -0.00197  -0.00187   0.00178
   8        5PY         0.00015  -0.00015  -0.00000  -0.00000  -0.00027
   9        5PZ        -0.00001  -0.00000  -0.00036   0.00041  -0.00002
  10        6PX        -0.00009  -0.00010  -0.00016  -0.00016   0.00016
  11        6PY        -0.00027   0.00028  -0.00000  -0.00000   0.00028
  12        6PZ        -0.00000  -0.00000   0.00037  -0.00035   0.00002
  13        7D 0       -0.00002  -0.00002   0.00004   0.00005  -0.00004
  14        7D+1       -0.00000  -0.00000   0.00006  -0.00006  -0.00000
  15        7D-1        0.00000  -0.00000   0.00000   0.00000   0.00000
  16        7D+2        0.00001   0.00001   0.00002   0.00002  -0.00000
  17        7D-2       -0.00001   0.00001   0.00000  -0.00000  -0.00007
  18        8D 0        0.00001   0.00001   0.00010   0.00010  -0.00065
  19        8D+1        0.00000   0.00000   0.00048  -0.00053  -0.00002
  20        8D-1       -0.00000   0.00001   0.00000   0.00000   0.00002
  21        8D+2       -0.00011  -0.00011   0.00056   0.00059   0.00028
  22        8D-2        0.00040  -0.00041  -0.00001  -0.00000  -0.00071
  23 2   Ti 1S          0.00000   0.00001   0.00021   0.00007   0.00059
  24        2S         -0.00000  -0.00000   0.00011   0.00008   0.00017
  25        3S         -0.00021  -0.00019   0.00119   0.00112  -0.00063
  26        4PX         0.00000   0.00000  -0.00002  -0.00002  -0.00008
  27        4PY        -0.00001   0.00001  -0.00000  -0.00000  -0.00016
  28        4PZ         0.00000   0.00000  -0.00000   0.00000   0.00001
  29        5PX         0.00011   0.00009  -0.00058  -0.00058  -0.00016
  30        5PY        -0.00015   0.00015  -0.00000  -0.00000  -0.00033
  31        5PZ        -0.00000  -0.00000  -0.00001   0.00006   0.00000
  32        6PX         0.00006   0.00006  -0.00011  -0.00008   0.00013
  33        6PY         0.00011  -0.00011  -0.00000   0.00000   0.00003
  34        6PZ        -0.00000  -0.00000  -0.00015   0.00015  -0.00002
  35        7D 0        0.00000   0.00000  -0.00001  -0.00001  -0.00007
  36        7D+1        0.00000   0.00000  -0.00001   0.00001   0.00001
  37        7D-1        0.00000  -0.00000  -0.00000  -0.00000  -0.00000
  38        7D+2        0.00000   0.00000  -0.00001  -0.00001  -0.00002
  39        7D-2       -0.00001   0.00001   0.00000   0.00000   0.00009
  40        8D 0       -0.00001  -0.00001   0.00005   0.00007  -0.00042
  41        8D+1        0.00000   0.00000   0.00018  -0.00021  -0.00002
  42        8D-1        0.00001  -0.00001  -0.00000  -0.00000   0.00002
  43        8D+2        0.00000   0.00001  -0.00006  -0.00017   0.00032
  44        8D-2        0.00014  -0.00014  -0.00000  -0.00000   0.00044
  45 3   O  1S         -0.00001   0.00001   0.00001   0.00001   0.99885
  46        2S         -0.00004   0.00004   0.00000   0.00000   0.00639
  47        3S          0.00015  -0.00015   0.00003   0.00003  -0.00449
  48        4PX         0.00001   0.00000   0.00001   0.00001  -0.00000
  49        4PY        -0.00001  -0.00000   0.00003   0.00002   0.00078
  50        4PZ        -0.00000   0.00000   0.00000  -0.00000  -0.00001
  51        5PX        -0.00009   0.00008  -0.00005  -0.00007   0.00015
  52        5PY         0.00006   0.00000  -0.00018  -0.00016  -0.00101
  53        5PZ         0.00001  -0.00001  -0.00003   0.00003   0.00002
  54 4   O  1S          0.00001  -0.00001   0.00001   0.00001   0.00400
  55        2S          0.00004  -0.00005   0.00000   0.00000   0.00015
  56        3S         -0.00014   0.00015   0.00004   0.00003  -0.00038
  57        4PX         0.00000   0.00000   0.00001   0.00001   0.00000
  58        4PY         0.00000   0.00001  -0.00003  -0.00002   0.00001
  59        4PZ         0.00000  -0.00000   0.00000  -0.00000   0.00000
  60        5PX         0.00008  -0.00008  -0.00005  -0.00007   0.00000
  61        5PY        -0.00000  -0.00006   0.00017   0.00015   0.00023
  62        5PZ        -0.00001   0.00001  -0.00003   0.00003  -0.00001
  63 5   O  1S         -0.00001  -0.00001   0.00163   0.99885  -0.00001
  64        2S         -0.00002  -0.00002   0.00018   0.00636  -0.00001
  65        3S          0.00017   0.00017  -0.00059  -0.00438   0.00007
  66        4PX        -0.00002  -0.00002   0.00002   0.00001  -0.00001
  67        4PY        -0.00001   0.00001  -0.00000  -0.00000   0.00000
  68        4PZ        -0.00002  -0.00002   0.00003  -0.00082  -0.00004
  69        5PX         0.00008   0.00008  -0.00004   0.00005   0.00010
  70        5PY         0.00000  -0.00001   0.00000   0.00000  -0.00004
  71        5PZ         0.00004   0.00004   0.00019   0.00094   0.00024
  72 6   O  1S         -0.00001  -0.00001   0.99885  -0.00162  -0.00001
  73        2S         -0.00002  -0.00002   0.00636   0.00016  -0.00000
  74        3S          0.00017   0.00017  -0.00435  -0.00057   0.00007
  75        4PX        -0.00002  -0.00002   0.00003   0.00002  -0.00001
  76        4PY        -0.00001   0.00001   0.00000  -0.00000   0.00000
  77        4PZ         0.00002   0.00002   0.00082  -0.00003   0.00004
  78        5PX         0.00008   0.00008   0.00003  -0.00004   0.00009
  79        5PY         0.00001  -0.00001  -0.00000  -0.00000  -0.00004
  80        5PZ        -0.00004  -0.00005  -0.00093  -0.00019  -0.00023
  81 7   O  1S          0.00000   0.00000  -0.00001  -0.00002   0.00006
  82        2S          0.00001   0.00001  -0.00003  -0.00008   0.00013
  83        3S         -0.00003  -0.00003   0.00008   0.00029  -0.00047
  84        4PX         0.00000   0.00000  -0.00000  -0.00001  -0.00000
  85        4PY         0.00001  -0.00001  -0.00000  -0.00000   0.00003
  86        4PZ        -0.00000  -0.00000   0.00002  -0.00001  -0.00002
  87        5PX        -0.00000   0.00000   0.00002  -0.00001   0.00013
  88        5PY        -0.00005   0.00005   0.00000   0.00000  -0.00019
  89        5PZ         0.00001   0.00001  -0.00012   0.00005   0.00014
  90 8   Ti 1S          0.00098   0.00097   0.00027   0.00028   0.00016
  91        2S          0.00025   0.00024   0.00003   0.00003   0.00006
  92        3S         -0.00038  -0.00038  -0.00079  -0.00077   0.00115
  93        4PX        -0.00005  -0.00005   0.00003   0.00003   0.00001
  94        4PY        -0.00006   0.00006  -0.00000  -0.00000   0.00001
  95        4PZ         0.00000   0.00000  -0.00010   0.00010   0.00000
  96        5PX        -0.00061  -0.00061   0.00027   0.00028   0.00053
  97        5PY        -0.00061   0.00062   0.00000   0.00000  -0.00007
  98        5PZ         0.00001   0.00001  -0.00029   0.00028  -0.00001
  99        6PX         0.00020   0.00019  -0.00021  -0.00021   0.00010
 100        6PY         0.00039  -0.00040   0.00000   0.00000  -0.00013
 101        6PZ        -0.00000  -0.00000  -0.00002   0.00002  -0.00001
 102        7D 0       -0.00006  -0.00006   0.00001   0.00001   0.00002
 103        7D+1       -0.00000  -0.00000  -0.00010   0.00010   0.00000
 104        7D-1       -0.00000   0.00000   0.00000   0.00000  -0.00000
 105        7D+2       -0.00001  -0.00001   0.00001   0.00001   0.00001
 106        7D-2        0.00001  -0.00001  -0.00000   0.00000   0.00002
 107        8D 0       -0.00031  -0.00031   0.00011   0.00010   0.00001
 108        8D+1        0.00000  -0.00000  -0.00032   0.00030  -0.00000
 109        8D-1       -0.00000   0.00001   0.00000   0.00000   0.00001
 110        8D+2       -0.00044  -0.00044   0.00061   0.00061  -0.00006
 111        8D-2        0.00071  -0.00072  -0.00001  -0.00000  -0.00044
 112 9   O  1S          0.99878  -0.00717   0.00001   0.00001   0.00001
 113        2S          0.00652  -0.00001  -0.00000   0.00000  -0.00005
 114        3S         -0.00438   0.00002   0.00013   0.00012   0.00021
 115        4PX        -0.00037   0.00004   0.00001   0.00001   0.00002
 116        4PY        -0.00052   0.00003   0.00004   0.00004  -0.00001
 117        4PZ         0.00000  -0.00000   0.00000  -0.00001  -0.00000
 118        5PX         0.00037  -0.00031   0.00001   0.00001  -0.00011
 119        5PY         0.00053  -0.00015  -0.00023  -0.00023   0.00010
 120        5PZ        -0.00000   0.00000  -0.00003   0.00003   0.00000
 121 10  H  1S          0.00008  -0.00005  -0.00007  -0.00006  -0.00001
 122        2S          0.00101  -0.00011   0.00003   0.00002  -0.00002
 123 11  O  1S          0.00717   0.99878   0.00001   0.00001  -0.00001
 124        2S          0.00009   0.00652   0.00000   0.00000   0.00003
 125        3S         -0.00004  -0.00438   0.00012   0.00012  -0.00020
 126        4PX         0.00003  -0.00037   0.00001   0.00001  -0.00001
 127        4PY        -0.00002   0.00052  -0.00004  -0.00004   0.00001
 128        4PZ        -0.00000   0.00001   0.00000  -0.00001   0.00000
 129        5PX        -0.00030   0.00038   0.00001   0.00001   0.00006
 130        5PY         0.00015  -0.00053   0.00023   0.00023   0.00002
 131        5PZ         0.00000  -0.00001  -0.00003   0.00003  -0.00000
 132 12  H  1S         -0.00004   0.00009  -0.00007  -0.00006   0.00003
 133        2S         -0.00010   0.00101   0.00002   0.00002  -0.00002
                           6         7         8         9        10
                           O         O         O         O         O
     Eigenvalues --   -19.13133 -19.10094  -2.50886  -2.46890  -2.43492
   1 1   Ti 1S          0.00072  -0.00051   0.00046  -0.01046   0.00117
   2        2S          0.00014  -0.00014   0.02240   1.00159  -0.02761
   3        3S         -0.00061   0.00009  -0.00528   0.01202  -0.00754
   4        4PX         0.00004  -0.00002  -0.00179  -0.00956   0.00200
   5        4PY         0.00012  -0.00000   0.00001   0.00002   0.00000
   6        4PZ        -0.00000  -0.00001   0.00001  -0.00006  -0.00002
   7        5PX         0.00178   0.00049  -0.00089  -0.00063  -0.01467
   8        5PY         0.00027  -0.00000   0.00004   0.00002  -0.00002
   9        5PZ        -0.00003  -0.00002   0.00002   0.00003   0.00036
  10        6PX         0.00016   0.00044   0.00037  -0.00030  -0.00518
  11        6PY        -0.00029   0.00000  -0.00002   0.00001  -0.00002
  12        6PZ         0.00002   0.00004   0.00001  -0.00002   0.00051
  13        7D 0       -0.00004  -0.00003  -0.00068  -0.00044  -0.00045
  14        7D+1       -0.00000  -0.00001  -0.00003   0.00000  -0.00001
  15        7D-1       -0.00000  -0.00000  -0.00000   0.00001  -0.00000
  16        7D+2       -0.00000  -0.00002   0.00103   0.00131   0.00083
  17        7D-2        0.00007   0.00000  -0.00001  -0.00000   0.00000
  18        8D 0       -0.00064   0.00015  -0.00201   0.00316   0.00374
  19        8D+1       -0.00003   0.00026   0.00016   0.00049  -0.00019
  20        8D-1       -0.00002  -0.00000  -0.00002   0.00001   0.00003
  21        8D+2        0.00027  -0.00037  -0.00320  -0.00307   0.00181
  22        8D-2        0.00071  -0.00000   0.00003   0.00002   0.00004
  23 2   Ti 1S          0.00059   0.00185   0.00099  -0.00054  -0.00821
  24        2S          0.00017   0.00067   0.00004   0.02677   1.00112
  25        3S         -0.00063  -0.00092   0.00153  -0.00489   0.01899
  26        4PX        -0.00008   0.00025   0.00017  -0.00153   0.00942
  27        4PY         0.00016  -0.00000  -0.00000  -0.00001  -0.00006
  28        4PZ         0.00001   0.00007   0.00001   0.00020   0.00503
  29        5PX        -0.00016   0.00092  -0.00220   0.00263  -0.00655
  30        5PY         0.00034   0.00000  -0.00004  -0.00000  -0.00004
  31        5PZ        -0.00000   0.00012   0.00002  -0.00002   0.00008
  32        6PX         0.00013  -0.00030   0.00034   0.00067  -0.00166
  33        6PY        -0.00003  -0.00000   0.00002   0.00000   0.00000
  34        6PZ        -0.00002  -0.00008  -0.00001  -0.00004  -0.00027
  35        7D 0       -0.00007  -0.00004   0.00003  -0.00039   0.00258
  36        7D+1        0.00001  -0.00000   0.00001  -0.00010  -0.00097
  37        7D-1        0.00000  -0.00000   0.00000   0.00000   0.00001
  38        7D+2       -0.00002   0.00002   0.00001   0.00111  -0.00096
  39        7D-2       -0.00009  -0.00000  -0.00000   0.00001   0.00001
  40        8D 0       -0.00042  -0.00052  -0.00018   0.00249   0.00015
  41        8D+1       -0.00002   0.00035   0.00009   0.00064  -0.00022
  42        8D-1       -0.00002  -0.00000   0.00001   0.00002  -0.00000
  43        8D+2        0.00032   0.00099   0.00166   0.00036  -0.00173
  44        8D-2       -0.00045  -0.00001   0.00004   0.00003   0.00002
  45 3   O  1S         -0.00399  -0.00005  -0.00002  -0.00164  -0.00292
  46        2S          0.00010   0.00012   0.00029   0.00237   0.00498
  47        3S         -0.00034  -0.00036  -0.00086   0.00603   0.00592
  48        4PX         0.00000  -0.00003  -0.00027  -0.00297   0.00481
  49        4PY        -0.00002   0.00002  -0.00006   0.00292   0.00489
  50        4PZ         0.00000  -0.00000   0.00000   0.00004  -0.00013
  51        5PX         0.00000   0.00008   0.00148   0.00219  -0.00352
  52        5PY        -0.00022  -0.00028   0.00029   0.00025  -0.00045
  53        5PZ        -0.00001   0.00003  -0.00003  -0.00000   0.00002
  54 4   O  1S          0.99885  -0.00005  -0.00002  -0.00165  -0.00291
  55        2S          0.00639   0.00012   0.00030   0.00238   0.00496
  56        3S         -0.00449  -0.00037  -0.00088   0.00602   0.00592
  57        4PX         0.00000  -0.00003  -0.00027  -0.00296   0.00483
  58        4PY        -0.00077  -0.00002   0.00006  -0.00295  -0.00485
  59        4PZ        -0.00000  -0.00000   0.00001   0.00006  -0.00009
  60        5PX         0.00013   0.00008   0.00151   0.00221  -0.00350
  61        5PY         0.00101   0.00029  -0.00028  -0.00023   0.00042
  62        5PZ         0.00001   0.00003  -0.00003  -0.00000   0.00001
  63 5   O  1S         -0.00001   0.00001  -0.00145  -0.00336   0.00013
  64        2S         -0.00001  -0.00008   0.00201   0.00621   0.00046
  65        3S          0.00007   0.00030   0.00596   0.00600  -0.00285
  66        4PX        -0.00001   0.00001  -0.00266   0.00536  -0.00011
  67        4PY        -0.00000   0.00000  -0.00000  -0.00002   0.00000
  68        4PZ        -0.00004   0.00000  -0.00265  -0.00578   0.00029
  69        5PX         0.00009  -0.00001   0.00146  -0.00467  -0.00074
  70        5PY         0.00004  -0.00000  -0.00000   0.00001   0.00001
  71        5PZ         0.00023  -0.00012   0.00018   0.00076  -0.00025
  72 6   O  1S         -0.00001   0.00001  -0.00142  -0.00342   0.00013
  73        2S         -0.00001  -0.00003   0.00195   0.00640   0.00041
  74        3S          0.00008   0.00007   0.00585   0.00565  -0.00265
  75        4PX        -0.00000   0.00001  -0.00255   0.00553  -0.00012
  76        4PY         0.00000  -0.00000   0.00001   0.00000  -0.00000
  77        4PZ         0.00003  -0.00001   0.00265   0.00577  -0.00028
  78        5PX         0.00009  -0.00004   0.00138  -0.00472  -0.00061
  79        5PY         0.00003   0.00000  -0.00001   0.00001   0.00001
  80        5PZ        -0.00023   0.00008  -0.00020  -0.00077   0.00025
  81 7   O  1S          0.00006   0.99885   0.00000  -0.00014  -0.00589
  82        2S          0.00013   0.00630   0.00006   0.00030   0.01213
  83        3S         -0.00047  -0.00418  -0.00062   0.00012   0.00411
  84        4PX        -0.00000  -0.00068   0.00003  -0.00026  -0.01255
  85        4PY        -0.00003   0.00000   0.00000   0.00000   0.00003
  86        4PZ        -0.00002  -0.00013   0.00001   0.00005  -0.00232
  87        5PX         0.00013   0.00072   0.00008   0.00018   0.00548
  88        5PY         0.00020  -0.00000  -0.00002  -0.00002  -0.00001
  89        5PZ         0.00013   0.00017   0.00008  -0.00062   0.00072
  90 8   Ti 1S          0.00016   0.00023  -0.01096   0.00172  -0.00072
  91        2S          0.00006   0.00008   1.00484  -0.02279   0.00004
  92        3S          0.00115   0.00051   0.00882  -0.00617  -0.00972
  93        4PX         0.00001   0.00001  -0.00104   0.00198  -0.00044
  94        4PY        -0.00001   0.00000  -0.00001  -0.00000  -0.00000
  95        4PZ         0.00000   0.00000   0.00003  -0.00003  -0.00000
  96        5PX         0.00053   0.00035  -0.00491  -0.00474  -0.00419
  97        5PY         0.00007  -0.00000   0.00000   0.00000   0.00003
  98        5PZ        -0.00001   0.00005   0.00008   0.00011  -0.00012
  99        6PX         0.00010  -0.00011   0.00198  -0.00020   0.00021
 100        6PY         0.00013  -0.00000   0.00000  -0.00000   0.00001
 101        6PZ        -0.00001  -0.00002  -0.00004   0.00000  -0.00017
 102        7D 0        0.00002  -0.00001  -0.00115  -0.00054  -0.00001
 103        7D+1        0.00000  -0.00001  -0.00005  -0.00003   0.00001
 104        7D-1        0.00000  -0.00000  -0.00001   0.00000   0.00000
 105        7D+2        0.00001  -0.00001  -0.00054   0.00111  -0.00007
 106        7D-2       -0.00002   0.00000   0.00000  -0.00000  -0.00000
 107        8D 0        0.00000  -0.00008  -0.00032  -0.00401   0.00001
 108        8D+1       -0.00000   0.00004   0.00007   0.00002  -0.00011
 109        8D-1       -0.00001  -0.00000  -0.00001  -0.00002   0.00000
 110        8D+2       -0.00005   0.00009  -0.00276  -0.00403  -0.00016
 111        8D-2        0.00044  -0.00000   0.00002   0.00001   0.00004
 112 9   O  1S         -0.00001  -0.00000  -0.00371   0.00013  -0.00000
 113        2S          0.00003   0.00001   0.00708   0.00048   0.00002
 114        3S         -0.00020  -0.00003   0.00609  -0.00324   0.00003
 115        4PX        -0.00001  -0.00000   0.00466  -0.00012   0.00005
 116        4PY        -0.00001   0.00000   0.00757  -0.00035   0.00010
 117        4PZ         0.00000  -0.00000  -0.00002   0.00000  -0.00000
 118        5PX         0.00006  -0.00000  -0.00627  -0.00065  -0.00024
 119        5PY        -0.00002  -0.00003  -0.00908   0.00078  -0.00050
 120        5PZ        -0.00000   0.00000   0.00004  -0.00001  -0.00000
 121 10  H  1S          0.00003  -0.00000  -0.00088   0.00040  -0.00010
 122        2S         -0.00003  -0.00001  -0.00927  -0.00019  -0.00022
 123 11  O  1S          0.00001  -0.00000  -0.00371   0.00013  -0.00000
 124        2S         -0.00005   0.00001   0.00708   0.00048   0.00002
 125        3S          0.00021  -0.00004   0.00610  -0.00323   0.00006
 126        4PX         0.00002  -0.00000   0.00465  -0.00012   0.00005
 127        4PY         0.00001  -0.00000  -0.00758   0.00035  -0.00010
 128        4PZ        -0.00000  -0.00000  -0.00004   0.00000  -0.00000
 129        5PX        -0.00011   0.00000  -0.00627  -0.00065  -0.00025
 130        5PY        -0.00010   0.00003   0.00908  -0.00078   0.00049
 131        5PZ         0.00000   0.00000   0.00007   0.00001  -0.00000
 132 12  H  1S         -0.00001  -0.00000  -0.00089   0.00040  -0.00010
 133        2S         -0.00002  -0.00001  -0.00926  -0.00019  -0.00023
                          11        12        13        14        15
                           O         O         O         O         O
     Eigenvalues --    -1.63295  -1.62900  -1.62088  -1.59522  -1.59022
   1 1   Ti 1S         -0.00000   0.00217   0.00004  -0.00342  -0.00005
   2        2S          0.00000  -0.01086   0.00000   0.00961   0.00010
   3        3S         -0.00006  -0.00844   0.00037  -0.00064   0.00039
   4        4PX         0.00009  -0.20692   0.00071   0.93251  -0.00771
   5        4PY         0.01096   0.00034   0.00009   0.00027   0.00274
   6        4PZ         0.00005   0.00157   0.05258   0.01047   0.98934
   7        5PX        -0.00012   0.02055   0.00031  -0.00114  -0.00003
   8        5PY        -0.00222   0.00006  -0.00003   0.00004   0.00002
   9        5PZ         0.00001  -0.00030  -0.00999   0.00050   0.00937
  10        6PX        -0.00007   0.00446   0.00034  -0.00048  -0.00018
  11        6PY        -0.00291  -0.00003   0.00001  -0.00002  -0.00001
  12        6PZ        -0.00001   0.00000   0.00420  -0.00027  -0.00604
  13        7D 0       -0.00000  -0.00255   0.00004  -0.00241   0.00016
  14        7D+1       -0.00000  -0.00010  -0.00227  -0.00045  -0.01099
  15        7D-1       -0.00000   0.00000   0.00001  -0.00002   0.00002
  16        7D+2       -0.00000   0.00618  -0.00003  -0.00373  -0.00011
  17        7D-2       -0.00036  -0.00003  -0.00000   0.00003  -0.00003
  18        8D 0        0.00000  -0.00612  -0.00014  -0.00169   0.00017
  19        8D+1        0.00002   0.00015   0.00307   0.00109  -0.00784
  20        8D-1        0.00011  -0.00004  -0.00002  -0.00001   0.00001
  21        8D+2       -0.00003  -0.00519   0.00015  -0.00384   0.00021
  22        8D-2       -0.00743   0.00006   0.00002   0.00003  -0.00002
  23 2   Ti 1S          0.00002  -0.00196  -0.00004   0.00319  -0.00051
  24        2S          0.00000   0.00024  -0.00001  -0.00520  -0.00004
  25        3S          0.00017  -0.01046  -0.00063  -0.00051  -0.00009
  26        4PX        -0.00001   0.02295   0.00006  -0.22922   0.00968
  27        4PY         0.00040   0.00008  -0.00000  -0.00072   0.00005
  28        4PZ        -0.00000  -0.00034   0.00023   0.00102   0.01732
  29        5PX        -0.00009   0.00684   0.00036  -0.00194  -0.00058
  30        5PY         0.00300  -0.00001   0.00001  -0.00004   0.00000
  31        5PZ        -0.00000  -0.00024   0.00183  -0.00013   0.00118
  32        6PX         0.00000  -0.00126  -0.00004   0.00060   0.00026
  33        6PY         0.00071   0.00002  -0.00000   0.00001   0.00000
  34        6PZ         0.00001  -0.00004  -0.00170   0.00012   0.00134
  35        7D 0        0.00000   0.00036  -0.00001  -0.00201   0.00011
  36        7D+1       -0.00000   0.00016   0.00013  -0.00148  -0.00050
  37        7D-1       -0.00000   0.00000  -0.00000  -0.00001  -0.00000
  38        7D+2        0.00000  -0.00055   0.00000   0.00204  -0.00003
  39        7D-2        0.00020  -0.00001   0.00000   0.00004  -0.00000
  40        8D 0       -0.00001  -0.00012   0.00005   0.00201   0.00004
  41        8D+1        0.00001   0.00026  -0.00056   0.00157  -0.00429
  42        8D-1       -0.00008   0.00001  -0.00000   0.00004  -0.00000
  43        8D+2        0.00006   0.00087  -0.00007   0.00595  -0.00097
  44        8D-2       -0.00270   0.00004  -0.00000   0.00009  -0.00002
  45 3   O  1S          0.00010   0.00189   0.00000  -0.01033   0.00033
  46        2S          0.00036  -0.00298   0.00001   0.02207  -0.00068
  47        3S         -0.00240  -0.00663  -0.00006   0.01694  -0.00063
  48        4PX         0.00014   0.00141   0.00001  -0.00693   0.00024
  49        4PY        -0.00012  -0.00303  -0.00000   0.01636  -0.00053
  50        4PZ         0.00001  -0.00002   0.00006   0.00012   0.00320
  51        5PX         0.00135   0.00194  -0.00002   0.00516  -0.00031
  52        5PY        -0.00035  -0.00020  -0.00003   0.00074   0.00011
  53        5PZ        -0.00011  -0.00003   0.00035   0.00004   0.00134
  54 4   O  1S         -0.00010   0.00188   0.00000  -0.01030   0.00034
  55        2S         -0.00035  -0.00294   0.00001   0.02201  -0.00070
  56        3S          0.00240  -0.00666  -0.00007   0.01686  -0.00064
  57        4PX        -0.00015   0.00137   0.00001  -0.00678   0.00025
  58        4PY        -0.00012   0.00302   0.00000  -0.01636   0.00057
  59        4PZ        -0.00001  -0.00004   0.00006   0.00023   0.00321
  60        5PX        -0.00128   0.00197  -0.00002   0.00521  -0.00031
  61        5PY        -0.00039   0.00022   0.00003  -0.00072  -0.00010
  62        5PZ         0.00011  -0.00004   0.00037   0.00003   0.00132
  63 5   O  1S         -0.00001  -0.00978  -0.00690   0.01087  -0.01456
  64        2S          0.00002   0.02032   0.01620  -0.02400   0.03326
  65        3S          0.00002   0.01965   0.00986  -0.01186   0.01574
  66        4PX        -0.00001  -0.00725  -0.01030  -0.01249   0.02074
  67        4PY         0.00274  -0.00002  -0.00001   0.00008  -0.00008
  68        4PZ        -0.00002  -0.01601  -0.00864   0.01717  -0.01781
  69        5PX        -0.00000   0.00468   0.00546   0.00501  -0.00720
  70        5PY         0.00097  -0.00001   0.00000  -0.00002   0.00003
  71        5PZ        -0.00000   0.00011   0.00429  -0.00025   0.00429
  72 6   O  1S          0.00001  -0.00972   0.00680   0.01166   0.01439
  73        2S         -0.00003   0.02016  -0.01590  -0.02561  -0.03285
  74        3S         -0.00003   0.01949  -0.00990  -0.01361  -0.01552
  75        4PX         0.00002  -0.00680   0.00991  -0.01377  -0.02086
  76        4PY         0.00268   0.00005  -0.00004   0.00000   0.00001
  77        4PZ        -0.00002   0.01605  -0.00875  -0.01791  -0.01700
  78        5PX         0.00001   0.00456  -0.00519   0.00528   0.00713
  79        5PY         0.00097  -0.00001   0.00001  -0.00001  -0.00000
  80        5PZ        -0.00001  -0.00020   0.00432   0.00011   0.00411
  81 7   O  1S          0.00000  -0.00057  -0.00000   0.00652  -0.00038
  82        2S          0.00000   0.00181   0.00005  -0.01341   0.00046
  83        3S         -0.00003  -0.00115  -0.00005  -0.00992   0.00213
  84        4PX         0.00000  -0.00109  -0.00002   0.01091  -0.00073
[...]
 128        4PZ         0.00000   0.00000   0.00000   0.00000   0.00004
 129        5PX         0.00000   0.00000  -0.00153  -0.00000   0.00000
 130        5PY        -0.00001  -0.00000   0.00000  -0.00011  -0.00000
 131        5PZ         0.00000   0.00004   0.00000   0.00000   0.00043
 132 12  H  1S         -0.00000   0.00000  -0.00000   0.00000   0.00000
 133        2S         -0.00001  -0.00000  -0.00001  -0.00006  -0.00000
                         121       122       123       124       125
 121 10  H  1S          0.19011
 122        2S          0.04449   0.02588
 123 11  O  1S         -0.00000   0.00000   2.11203
 124        2S          0.00000  -0.00000  -0.06425   0.52841
 125        3S          0.00000  -0.00000  -0.04570   0.40331   0.51315
 126        4PX        -0.00000  -0.00000   0.00000   0.00000   0.00000
 127        4PY        -0.00000  -0.00001   0.00000   0.00000   0.00000
 128        4PZ         0.00000  -0.00000   0.00000   0.00000   0.00000
 129        5PX        -0.00000  -0.00001   0.00000   0.00000   0.00000
 130        5PY         0.00000  -0.00006   0.00000   0.00000   0.00000
 131        5PZ         0.00000  -0.00000   0.00000   0.00000   0.00000
 132 12  H  1S         -0.00000   0.00000  -0.00179   0.02715   0.02442
 133        2S          0.00000   0.00000  -0.00010   0.00309  -0.00570
                         126       127       128       129       130
 126        4PX         0.88681
 127        4PY        -0.00000   0.80698
 128        4PZ        -0.00000   0.00000   0.93148
 129        5PX         0.21946  -0.00000  -0.00000   0.22047
 130        5PY        -0.00000   0.17400   0.00000  -0.00000   0.16379
 131        5PZ        -0.00000   0.00000   0.25284  -0.00000   0.00000
 132 12  H  1S          0.03578   0.08194   0.00000   0.01977   0.04494
 133        2S          0.00848   0.01920  -0.00000   0.00786   0.01708
                         131       132       133
 131        5PZ         0.26906
 132 12  H  1S          0.00000   0.19010
 133        2S         -0.00000   0.04448   0.02588
     Gross orbital populations:
                           1
   1 1   Ti 1S          0.27622
   2        2S          2.00926
   3        3S          0.07223
   4        4PX         2.01452
   5        4PY         2.00978
   6        4PZ         2.00891
   7        5PX        -0.20025
   8        5PY         0.07589
   9        5PZ         0.08537
  10        6PX        -0.01949
  11        6PY         0.00432
  12        6PZ        -0.00273
  13        7D 0        0.27251
  14        7D+1        0.48564
  15        7D-1        0.25754
  16        7D+2        0.28594
  17        7D-2        0.49641
  18        8D 0        0.07250
  19        8D+1        0.08170
  20        8D-1        0.10828
  21        8D+2        0.10821
  22        8D-2        0.06704
  23 2   Ti 1S          0.20698
  24        2S          2.00808
  25        3S          0.05046
  26        4PX         2.01018
  27        4PY         2.00762
  28        4PZ         2.00702
  29        5PX         0.01547
  30        5PY         0.08875
  31        5PZ         0.07624
  32        6PX         0.00177
  33        6PY        -0.00824
  34        6PZ         0.00202
  35        7D 0        0.45026
  36        7D+1        0.43202
  37        7D-1        0.30184
  38        7D+2        0.22858
  39        7D-2        0.45108
  40        8D 0        0.06388
  41        8D+1        0.05857
  42        8D-1        0.09594
  43        8D+2        0.05686
  44        8D-2        0.03483
  45 3   O  1S          1.99924
  46        2S          0.92579
  47        3S          0.99063
  48        4PX         1.11361
  49        4PY         1.13061
  50        4PZ         1.14503
  51        5PX         0.46207
  52        5PY         0.43972
  53        5PZ         0.52769
  54 4   O  1S          1.99924
  55        2S          0.92579
  56        3S          0.99063
  57        4PX         1.11361
  58        4PY         1.13061
  59        4PZ         1.14503
  60        5PX         0.46207
  61        5PY         0.43972
  62        5PZ         0.52769
  63 5   O  1S          1.99924
  64        2S          0.92616
  65        3S          0.98446
  66        4PX         1.11248
  67        4PY         1.14625
  68        4PZ         1.13232
  69        5PX         0.46351
  70        5PY         0.51985
  71        5PZ         0.43983
  72 6   O  1S          1.99924
  73        2S          0.92569
  74        3S          0.99442
  75        4PX         1.10990
  76        4PY         1.14180
  77        4PZ         1.13986
  78        5PX         0.45981
  79        5PY         0.52235
  80        5PZ         0.43821
  81 7   O  1S          1.99926
  82        2S          0.95793
  83        3S          0.95707
  84        4PX         1.08459
  85        4PY         1.09924
  86        4PZ         1.14091
  87        5PX         0.42535
  88        5PY         0.48065
  89        5PZ         0.37252
  90 8   Ti 1S          0.27290
  91        2S          2.01344
  92        3S          0.02961
  93        4PX         2.01632
  94        4PY         2.02069
  95        4PZ         2.01007
  96        5PX         0.04134
  97        5PY         0.06772
  98        5PZ         0.10867
  99        6PX         0.00680
 100        6PY         0.00001
 101        6PZ        -0.00268
 102        7D 0        0.24478
 103        7D+1        0.48406
 104        7D-1        0.29221
 105        7D+2        0.35527
 106        7D-2        0.34807
 107        8D 0        0.04839
 108        8D+1        0.03084
 109        8D-1        0.11524
 110        8D+2        0.07492
 111        8D-2        0.08735
 112 9   O  1S          1.99916
 113        2S          0.91334
 114        3S          0.90113
 115        4PX         1.18015
 116        4PY         1.11176
 117        4PZ         1.21552
 118        5PX         0.49254
 119        5PY         0.38037
 120        5PZ         0.57183
 121 10  H  1S          0.46273
 122        2S          0.11264
 123 11  O  1S          1.99916
 124        2S          0.91334
 125        3S          0.90112
 126        4PX         1.18043
 127        4PY         1.11148
 128        4PZ         1.21553
 129        5PX         0.49280
 130        5PY         0.38010
 131        5PZ         0.57183
 132 12  H  1S          0.46273
 133        2S          0.11263
          Condensed to atoms (all electrons):
               1          2          3          4          5          6
     1  Ti  10.598779  -0.251357   0.164304   0.164307   0.133763   0.150042
     2  Ti  -0.251357  10.219220   0.160891   0.160893  -0.007747  -0.016738
     3  O    0.164304   0.160891   8.456335  -0.036082  -0.000322   0.002346
     4  O    0.164307   0.160893  -0.036082   8.456334  -0.000322   0.002347
     5  O    0.133763  -0.007747  -0.000322  -0.000322   8.445008  -0.040414
     6  O    0.150042  -0.016738   0.002346   0.002347  -0.040414   8.452022
     7  O   -0.048484   0.395094   0.000664   0.000664  -0.000006  -0.000002
     8  Ti  -0.284458  -0.019500  -0.013742  -0.013746   0.196197   0.183114
     9  O   -0.028587  -0.000419  -0.000002  -0.000000  -0.000994  -0.000708
    10  H    0.000022   0.000140   0.000000  -0.000000  -0.000036  -0.000010
    11  O   -0.028542  -0.000420  -0.000000  -0.000002  -0.000990  -0.000709
    12  H    0.000019   0.000140  -0.000000   0.000000  -0.000036  -0.000010
               7          8          9         10         11         12
     1  Ti  -0.048484  -0.284458  -0.028587   0.000022  -0.028542   0.000019
     2  Ti   0.395094  -0.019500  -0.000419   0.000140  -0.000420   0.000140
     3  O    0.000664  -0.013742  -0.000002   0.000000  -0.000000  -0.000000
     4  O    0.000664  -0.013746  -0.000000  -0.000000  -0.000002   0.000000
     5  O   -0.000006   0.196197  -0.000994  -0.000036  -0.000990  -0.000036
     6  O   -0.000002   0.183114  -0.000708  -0.000010  -0.000709  -0.000010
     7  O    8.169962  -0.000382  -0.000000  -0.000000  -0.000000  -0.000000
     8  Ti  -0.000382  10.231360   0.205332  -0.011740   0.205309  -0.011738
     9  O   -0.000000   0.205332   8.311552   0.282124  -0.002409  -0.000089
    10  H   -0.000000  -0.011740   0.282124   0.304958  -0.000089   0.000002
    11  O   -0.000000   0.205309  -0.002409  -0.000089   8.311501   0.282128
    12  H   -0.000000  -0.011738  -0.000089   0.000002   0.282128   0.304949
 Mulliken charges:
               1
     1  Ti   1.430192
     2  Ti   1.359802
     3  O   -0.734392
     4  O   -0.734393
     5  O   -0.724101
     6  O   -0.731281
     7  O   -0.517510
     8  Ti   1.333994
     9  O   -0.765799
    10  H    0.424628
    11  O   -0.765775
    12  H    0.424636
 Sum of Mulliken charges =  -0.00000
 Mulliken charges with hydrogens summed into heavy atoms:
               1
     1  Ti   1.430192
     2  Ti   1.359802
     3  O   -0.734392
     4  O   -0.734393
     5  O   -0.724101
     6  O   -0.731281
     7  O   -0.517510
     8  Ti   1.333994
     9  O   -0.341171
    11  O   -0.341140
 Electronic spatial extent (au):  <R**2>=           2643.9250
 Charge=             -0.0000 electrons
 Dipole moment (field-independent basis, Debye):
    X=              0.3344    Y=              0.0034    Z=             -6.1101  Tot=              6.1193
 Quadrupole moment (field-independent basis, Debye-Ang):
   XX=            -59.8449   YY=            -83.5187   ZZ=            -92.0250
   XY=             -0.0025   XZ=            -25.2001   YZ=              0.0038
 Traceless Quadrupole moment (field-independent basis, Debye-Ang):
   XX=             18.6180   YY=             -5.0559   ZZ=            -13.5621
   XY=             -0.0025   XZ=            -25.2001   YZ=              0.0038
 Octapole moment (field-independent basis, Debye-Ang**2):
  XXX=            -54.2996  YYY=              0.0520  ZZZ=            -15.4715  XYY=            -54.4289
  XXY=             -0.0340  XXZ=           -100.0099  XZZ=             12.0666  YZZ=              0.0006
  YYZ=             -1.2531  XYZ=             -0.0157
 Hexadecapole moment (field-independent basis, Debye-Ang**3):
 XXXX=          -2717.3134 YYYY=           -320.7079 ZZZZ=           -272.8442 XXXY=              0.2857
 XXXZ=           -397.4883 YYYX=             -0.1372 YYYZ=              0.0206 ZZZX=            -50.7394
 ZZZY=              0.0021 XXYY=           -387.1521 XXZZ=           -566.8011 YYZZ=           -111.3544
 XXYZ=              0.0577 YYXZ=            -10.3257 ZZXY=             -0.0008
 N-N= 7.093608581316D+02 E-N=-3.033266273747D+03  KE= 5.980595904879D+02
 Orbital energies and kinetic energies (alpha):
                                 1                 2
   1         O               -19.143612         29.124554
   2         O               -19.143599         29.124568
   3         O               -19.141461         29.126306
   4         O               -19.138090         29.126433
   5         O               -19.138088         29.126408
   6         O               -19.136525         29.126243
   7         O               -19.124502         29.127705
   8         O                -2.463381          1.344318
   9         O                -2.457028          1.341994
  10         O                -2.448243          1.341590
  11         O                -1.596449          2.304629
  12         O                -1.586833          2.376693
  13         O                -1.582224          2.368287
  14         O                -1.580003          2.376407
  15         O                -1.575819          2.377593
  16         O                -1.575003          2.374399
  17         O                -1.573475          2.381547
  18         O                -1.567089          2.405125
  19         O                -1.565422          2.389479
  20         O                -0.972701          2.777405
  21         O                -0.966463          2.821922
  22         O                -0.929586          2.906483
  23         O                -0.913441          3.065936
  24         O                -0.909705          3.073636
  25         O                -0.907035          3.066143
  26         O                -0.871642          3.141439
  27         O                -0.518413          2.164312
  28         O                -0.508655          2.302978
  29         O                -0.407508          2.295064
  30         O                -0.395615          2.497828
  31         O                -0.392792          2.508945
  32         O                -0.381172          2.356188
  33         O                -0.372631          2.286078
  34         O                -0.368443          2.256103
  35         O                -0.367013          2.178094
  36         O                -0.362918          2.182634
  37         O                -0.362394          2.318692
  38         O                -0.349806          2.231396
  39         O                -0.343839          2.278128
  40         O                -0.341368          2.186078
  41         O                -0.329463          2.524912
  42         O                -0.328262          2.409334
  43         O                -0.316947          2.396531
  44         O                -0.315021          2.345651
  45         O                -0.308117          2.398123
  46         O                -0.298224          2.400129
  47         O                -0.291012          2.395357
  48         V                -0.097740          3.642254
  49         V                -0.088785          3.702833
  50         V                -0.074756          3.624231
  51         V                -0.066088          3.596881
  52         V                -0.060683          3.679983
  53         V                -0.053376          2.979729
  54         V                -0.041363          4.045846
  55         V                -0.040898          3.843436
  56         V                -0.031144          3.680705
  57         V                -0.020888          3.525551
  58         V                -0.016641          3.701053
  59         V                -0.010620          3.803771
  60         V                -0.005483          1.015638
  61         V                -0.002329          3.207600
  62         V                 0.001746          2.913055
  63         V                 0.003130          2.654743
  64         V                 0.012099          1.716797
  65         V                 0.013523          0.756939
  66         V                 0.016992          1.936023
  67         V                 0.020402          0.614536
  68         V                 0.022793          0.543684
  69         V                 0.027701          0.312781
  70         V                 0.043131          0.232345
  71         V                 0.045075          0.292043
  72         V                 0.047647          0.255113
  73         V                 0.073652          0.675253
  74         V                 0.096798          0.741841
  75         V                 0.123676          0.830419
  76         V                 0.127171          0.834805
  77         V                 0.142728          0.917923
  78         V                 0.144035          0.895072
  79         V                 0.160083          1.190656
  80         V                 0.166713          1.056807
  81         V                 0.167568          1.178103
  82         V                 0.177936          1.127957
  83         V                 0.193020          0.961669
  84         V                 0.206020          1.210353
  85         V                 0.221072          1.151153
  86         V                 0.314779          1.452337
  87         V                 0.318140          1.461185
  88         V                 0.331972          1.447186
  89         V                 0.340900          1.471310
  90         V                 0.344803          1.373520
  91         V                 0.346782          1.599236
  92         V                 0.346805          1.467470
  93         V                 0.367831          1.485930
  94         V                 0.371048          1.355633
  95         V                 0.381650          1.461538
  96         V                 0.381773          1.344123
  97         V                 0.425327          2.165355
  98         V                 0.452975          1.650319
  99         V                 0.500621          1.574547
 100         V                 0.511064          1.678551
 101         V                 0.621546          2.033181
 102         V                 0.675910          2.843871
 103         V                 0.723533          2.877418
 104         V                 0.733977          2.953978
 105         V                 0.747986          2.884235
 106         V                 0.749593          2.879365
 107         V                 0.784236          2.865336
 108         V                 0.802721          3.027561
 109         V                 0.807380          2.895057
 110         V                 0.821075          3.251989
 111         V                 0.843503          2.949361
 112         V                 0.845446          2.816405
 113         V                 0.870359          2.912310
 114         V                 0.882466          3.091355
 115         V                 0.888532          2.922847
 116         V                 0.924332          3.010408
 117         V                 0.942184          2.949306
 118         V                 0.967432          3.058041
 119         V                 0.969188          3.331171
 120         V                 0.999454          3.208321
 121         V                 1.041529          2.963067
 122         V                 1.054255          2.957047
 123         V                 1.093158          3.346741
 124         V                 1.354186          3.785466
 125         V                 1.484191          3.993373
 126         V                 1.495917          4.105798
 127         V                 1.539984          4.345235
 128         V                 1.599216          4.216325
 129         V                 1.622842          4.184394
 130         V                 1.707693          4.200826
 131         V                 3.768402          2.424204
 132         V                11.075334          3.021448
 133         V                16.325041          4.159196
 Total kinetic energy from orbitals= 5.980595904879D+02
 No NMR shielding tensors so no spin-rotation constants.
 Leave Link  601 at Mon Jun  7 11:51:45 2021, MaxMem=   536870912 cpu:               1.4 elap:               0.2
 (Enter /home/rheinheimer/Apps//g16/l9999.exe)

 Test job not archived.
 1\1\GINC-POP-OS\FOpt\RB3LYP\LANL2DZ\H2O7Ti3\RHEINHEIMER\07-Jun-2021\0\
 \#P B3LYP/LANL2DZ # Opt # SCRF=(Solvent=Ethanol) # Gfinput IOP(6/7=3) 
 Pop=Full Density Test # Units(Ang,Deg)\\3-tio2.pdb\\0,1\Ti,1.144776670
 3,1.2870721567,-0.0156093772\Ti,3.8617419563,1.2772734647,-0.587774494
 2\O,2.4266127269,0.0616029326,-0.4581641226\O,2.5033871451,2.503847459
 5,-0.135352286\O,-0.2224041047,1.1596201681,1.2742009305\O,-0.27529526
 84,1.4837466413,-1.1659186916\O,4.8025105182,1.0704810725,0.753239063\
 Ti,-1.6273194839,1.3571695442,0.1134949834\O,-2.5834097799,-0.13437157
 22,-0.059595456\H,-3.1427682687,-0.9201857171,-0.1336828146\O,-2.48826
 42055,2.8984865201,0.3410908707\H,-2.9956079058,3.7105973296,0.4787413
 946\\Version=ES64L-G16RevA.03\State=1-A\HF=-702.7218726\RMSD=7.729e-09
 \RMSF=6.422e-05\Dipole=0.0081,0.3165041,-2.3865977\Quadrupole=11.84418
 13,-3.9799562,-7.8642251,2.1174014,-19.7457555,1.1662749\PG=C01 [X(H2O
 7Ti3)]\\@


 A FOOL CAN ASK MORE QUESTIONS THAN
 A WISE MAN CAN ANSWER.
 Job cpu time:       0 days  1 hours 40 minutes 44.0 seconds.
 Elapsed time:       0 days  0 hours 14 minutes  1.7 seconds.
 File lengths (MBytes):  RWF=     62 Int=      0 D2E=      0 Chk=      5 Scr=      1
 Normal termination of Gaussian 16 at Mon Jun  7 11:51:45 2021.
