 Entering Gaussian System, Link 0=g16
 Input=e-3-tio2-p_cation_scf_g09.com
 Output=e-3-tio2-p_cation_scf_g09.log
 Initial command:
 /home/rheinheimer/Apps//g16/l1.exe "/home/rheinheimer/Apps/scrgauss/Gau-942782.inp" -scrdir="/home/rheinheimer/Apps/scrgauss/"
 Entering Link 1 = /home/rheinheimer/Apps//g16/l1.exe PID=    942784.
  
 Copyright (c) 1988,1990,1992,1993,1995,1998,2003,2009,2016,
            Gaussian, Inc.  All Rights Reserved.
  
 This is part of the Gaussian(R) 16 program.  It is based on
 the Gaussian(R) 09 system (copyright 2009, Gaussian, Inc.),
 the Gaussian(R) 03 system (copyright 2003, Gaussian, Inc.),
 the Gaussian(R) 98 system (copyright 1998, Gaussian, Inc.),
 the Gaussian(R) 94 system (copyright 1995, Gaussian, Inc.),
 the Gaussian 92(TM) system (copyright 1992, Gaussian, Inc.),
 the Gaussian 90(TM) system (copyright 1990, Gaussian, Inc.),
 the Gaussian 88(TM) system (copyright 1988, Gaussian, Inc.),
 the Gaussian 86(TM) system (copyright 1986, Carnegie Mellon
 University), and the Gaussian 82(TM) system (copyright 1983,
 Carnegie Mellon University). Gaussian is a federally registered
 trademark of Gaussian, Inc.
  
 This software contains proprietary and confidential information,
 including trade secrets, belonging to Gaussian, Inc.
  
 This software is provided under written license and may be
 used, copied, transmitted, or stored only in accord with that
 written license.
  
 The following legend is applicable only to US Government
 contracts under FAR:
  
                    RESTRICTED RIGHTS LEGEND
  
 Use, reproduction and disclosure by the US Government is
 subject to restrictions as set forth in subparagraphs (a)
 and (c) of the Commercial Computer Software - Restricted
 Rights clause in FAR 52.227-19.
  
 Gaussian, Inc.
 340 Quinnipiac St., Bldg. 40, Wallingford CT 06492
  
  
 ---------------------------------------------------------------
 Warning -- This program may not be used in any manner that
 competes with the business of Gaussian, Inc. or will provide
 assistance to any competitor of Gaussian, Inc.  The licensee
 of this program is prohibited from giving any competitor of
 Gaussian, Inc. access to this program.  By using this program,
 the user acknowledges that Gaussian, Inc. is engaged in the
 business of creating and licensing software in the field of
 computational chemistry and represents and warrants to the
 licensee that it is not a competitor of Gaussian, Inc. and that
 it will not use this program in any manner prohibited above.
 ---------------------------------------------------------------
  

 Cite this work as:
 Gaussian 16, Revision A.03,
 M. J. Frisch, G. W. Trucks, H. B. Schlegel, G. E. Scuseria, 
 M. A. Robb, J. R. Cheeseman, G. Scalmani, V. Barone, 
 G. A. Petersson, H. Nakatsuji, X. Li, M. Caricato, A. V. Marenich, 
 J. Bloino, B. G. Janesko, R. Gomperts, B. Mennucci, H. P. Hratchian, 
 J. V. Ortiz, A. F. Izmaylov, J. L. Sonnenberg, D. Williams-Young, 
 F. Ding, F. Lipparini, F. Egidi, J. Goings, B. Peng, A. Petrone, 
 T. Henderson, D. Ranasinghe, V. G. Zakrzewski, J. Gao, N. Rega, 
 G. Zheng, W. Liang, M. Hada, M. Ehara, K. Toyota, R. Fukuda, 
 J. Hasegawa, M. Ishida, T. Nakajima, Y. Honda, O. Kitao, H. Nakai, 
 T. Vreven, K. Throssell, J. A. Montgomery, Jr., J. E. Peralta, 
 F. Ogliaro, M. J. Bearpark, J. J. Heyd, E. N. Brothers, K. N. Kudin, 
 V. N. Staroverov, T. A. Keith, R. Kobayashi, J. Normand, 
 K. Raghavachari, A. P. Rendell, J. C. Burant, S. S. Iyengar, 
 J. Tomasi, M. Cossi, J. M. Millam, M. Klene, C. Adamo, R. Cammi, 
 J. W. Ochterski, R. L. Martin, K. Morokuma, O. Farkas, 
 J. B. Foresman, and D. J. Fox, Gaussian, Inc., Wallingford CT, 2016.
 
 ******************************************
 Gaussian 16:  ES64L-G16RevA.03 25-Dec-2016
                 7-Jun-2021 
 ******************************************
 %nproc=8
 Will use up to    8 processors via shared memory.
 %Mem=4GB
 ----------------------------------------------------------------------
 #t B3LYP/LANL2DZ # SCRF=(Solvent=Ethanol) # Gfinput IOP(6/7=3) Pop=hir
 shfeld Density Test # Units(Ang,Deg)
 ----------------------------------------------------------------------
 ----------
 3-tio2.pdb
 ----------
 Symbolic Z-matrix:
 Charge =  1 Multiplicity = 2
 Ti                    0.3241   -0.00001   0.0514 
 Ti                    3.06784  -0.00001  -0.37437 
 O                     1.6575   -1.23235  -0.15865 
 O                     1.65749   1.23234  -0.15862 
 O                    -1.10839   0.00003   1.27492 
 O                    -1.03497  -0.00001  -1.18611 
 O                     3.93824   0.00001   1.02867 
 Ti                   -2.45178   0.00001   0.02778 
 O                    -3.36066  -1.53041   0.00496 
 H                    -3.89599  -2.3362    0.00702 
 O                    -3.36086   1.53028   0.0048 
 H                    -3.89444   2.33722   0.00749 
 
                    Distance matrix (angstroms):
                    1          2          3          4          5
     1  Ti   0.000000
     2  Ti   2.776579   0.000000
     3  O    1.827769   1.885273   0.000000
     4  O    1.827765   1.885291   2.464690   0.000000
     5  O    1.883887   4.490106   3.350228   3.350182   0.000000
     6  O    1.838070   4.182340   3.134283   3.134288   2.462125
     7  O    3.743937   1.651096   2.851353   2.851336   5.052634
     8  Ti   2.775980   5.534251   4.294141   4.294122   1.833045
     9  O    3.990205   6.619035   5.029666   5.730740   3.004624
    10  H    4.823786   7.355146   5.664555   6.603261   3.851786
    11  O    3.990350   6.619195   5.730862   5.029842   3.004745
    12  H    4.822930   7.354033   6.602535   5.663239   3.851092
                    6          7          8          9         10
     6  O    0.000000
     7  O    5.444086   0.000000
     8  Ti   1.865712   6.467931   0.000000
     9  O    3.028136   7.527557   1.780104   0.000000
    10  H    3.881595   8.238738   2.746644   0.967409   0.000000
    11  O    3.028171   7.527742   1.780079   3.060690   3.903337
    12  H    3.881223   8.237490   2.746676   3.904291   4.673420
                   11         12
    11  O    0.000000
    12  H    0.967402   0.000000
 Framework group  C1[X(H2O7Ti3)]
 Deg. of freedom    30
                         Standard orientation:                         
 ---------------------------------------------------------------------
 Center     Atomic      Atomic             Coordinates (Angstroms)
 Number     Number       Type             X           Y           Z
 ---------------------------------------------------------------------
      1         22           0        0.324101   -0.000009    0.051399
      2         22           0        3.067841   -0.000006   -0.374371
      3          8           0        1.657502   -1.232348   -0.158651
      4          8           0        1.657490    1.232342   -0.158621
      5          8           0       -1.108389    0.000029    1.274919
      6          8           0       -1.034969   -0.000010   -1.186111
      7          8           0        3.938241    0.000015    1.028669
      8         22           0       -2.451779    0.000008    0.027779
      9          8           0       -3.360658   -1.530413    0.004959
     10          1           0       -3.895987   -2.336203    0.007019
     11          8           0       -3.360861    1.530277    0.004799
     12          1           0       -3.894442    2.337217    0.007489
 ---------------------------------------------------------------------
 Rotational constants (GHZ):           2.4343629           0.3195007           0.3075599
 AO basis set in the form of general basis input (Overlap normalization):
      1 0
 S   3 1.00       0.000000000000
      0.1098000000D+01 -0.1023676994D+00
      0.4178000000D+00 -0.3753172148D+00
      0.8720000000D-01  0.1215423149D+01
 S   3 1.00       0.000000000000
      0.4372000000D+01 -0.3637098367D+00
      0.1098000000D+01  0.8184533826D+00
      0.4178000000D+00  0.4184526423D+00
 S   1 1.00       0.000000000000
      0.3140000000D-01  0.1000000000D+01
 P   3 1.00       0.000000000000
      0.1252000000D+02 -0.4569080054D-01
      0.1491000000D+01  0.6203313074D+00
      0.4859000000D+00  0.4765329057D+00
 P   1 1.00       0.000000000000
      0.5300000000D-01  0.1000000000D+01
 P   1 1.00       0.000000000000
      0.1600000000D-01  0.1000000000D+01
 D   4 1.00       0.000000000000
      0.2021000000D+02  0.3416819898D-01
      0.5495000000D+01  0.1710005949D+00
      0.1699000000D+01  0.4405848869D+00
      0.4840000000D+00  0.6114245818D+00
 D   1 1.00       0.000000000000
      0.1157000000D+00  0.1000000000D+01
 ****
      2 0
 S   3 1.00       0.000000000000
      0.1098000000D+01 -0.1023676994D+00
      0.4178000000D+00 -0.3753172148D+00
      0.8720000000D-01  0.1215423149D+01
 S   3 1.00       0.000000000000
      0.4372000000D+01 -0.3637098367D+00
      0.1098000000D+01  0.8184533826D+00
      0.4178000000D+00  0.4184526423D+00
 S   1 1.00       0.000000000000
      0.3140000000D-01  0.1000000000D+01
 P   3 1.00       0.000000000000
      0.1252000000D+02 -0.4569080054D-01
      0.1491000000D+01  0.6203313074D+00
      0.4859000000D+00  0.4765329057D+00
 P   1 1.00       0.000000000000
      0.5300000000D-01  0.1000000000D+01
 P   1 1.00       0.000000000000
      0.1600000000D-01  0.1000000000D+01
 D   4 1.00       0.000000000000
      0.2021000000D+02  0.3416819898D-01
      0.5495000000D+01  0.1710005949D+00
      0.1699000000D+01  0.4405848869D+00
      0.4840000000D+00  0.6114245818D+00
 D   1 1.00       0.000000000000
      0.1157000000D+00  0.1000000000D+01
 ****
      3 0
 S   7 1.00       0.000000000000
      0.7817000000D+04  0.1176000331D-02
      0.1176000000D+04  0.8968002523D-02
      0.2732000000D+03  0.4286801206D-01
      0.8117000000D+02  0.1439300405D+00
      0.2718000000D+02  0.3556301000D+00
      0.9532000000D+01  0.4612481297D+00
      0.3414000000D+01  0.1402060394D+00
 S   2 1.00       0.000000000000
      0.9532000000D+01 -0.1541530739D+00
      0.9398000000D+00  0.1056914507D+01
 S   1 1.00       0.000000000000
      0.2846000000D+00  0.1000000000D+01
 P   4 1.00       0.000000000000
      0.3518000000D+02  0.1958000050D-01
      0.7904000000D+01  0.1242000032D+00
      0.2305000000D+01  0.3947140101D+00
      0.7171000000D+00  0.6273760161D+00
 P   1 1.00       0.000000000000
      0.2137000000D+00  0.1000000000D+01
 ****
      4 0
 S   7 1.00       0.000000000000
      0.7817000000D+04  0.1176000331D-02
      0.1176000000D+04  0.8968002523D-02
      0.2732000000D+03  0.4286801206D-01
      0.8117000000D+02  0.1439300405D+00
      0.2718000000D+02  0.3556301000D+00
      0.9532000000D+01  0.4612481297D+00
      0.3414000000D+01  0.1402060394D+00
 S   2 1.00       0.000000000000
      0.9532000000D+01 -0.1541530739D+00
      0.9398000000D+00  0.1056914507D+01
 S   1 1.00       0.000000000000
      0.2846000000D+00  0.1000000000D+01
 P   4 1.00       0.000000000000
      0.3518000000D+02  0.1958000050D-01
      0.7904000000D+01  0.1242000032D+00
      0.2305000000D+01  0.3947140101D+00
      0.7171000000D+00  0.6273760161D+00
 P   1 1.00       0.000000000000
      0.2137000000D+00  0.1000000000D+01
 ****
      5 0
 S   7 1.00       0.000000000000
      0.7817000000D+04  0.1176000331D-02
      0.1176000000D+04  0.8968002523D-02
      0.2732000000D+03  0.4286801206D-01
      0.8117000000D+02  0.1439300405D+00
      0.2718000000D+02  0.3556301000D+00
      0.9532000000D+01  0.4612481297D+00
      0.3414000000D+01  0.1402060394D+00
 S   2 1.00       0.000000000000
      0.9532000000D+01 -0.1541530739D+00
      0.9398000000D+00  0.1056914507D+01
 S   1 1.00       0.000000000000
      0.2846000000D+00  0.1000000000D+01
 P   4 1.00       0.000000000000
      0.3518000000D+02  0.1958000050D-01
      0.7904000000D+01  0.1242000032D+00
      0.2305000000D+01  0.3947140101D+00
      0.7171000000D+00  0.6273760161D+00
 P   1 1.00       0.000000000000
      0.2137000000D+00  0.1000000000D+01
 ****
      6 0
 S   7 1.00       0.000000000000
      0.7817000000D+04  0.1176000331D-02
      0.1176000000D+04  0.8968002523D-02
      0.2732000000D+03  0.4286801206D-01
      0.8117000000D+02  0.1439300405D+00
      0.2718000000D+02  0.3556301000D+00
      0.9532000000D+01  0.4612481297D+00
      0.3414000000D+01  0.1402060394D+00
 S   2 1.00       0.000000000000
      0.9532000000D+01 -0.1541530739D+00
      0.9398000000D+00  0.1056914507D+01
 S   1 1.00       0.000000000000
      0.2846000000D+00  0.1000000000D+01
 P   4 1.00       0.000000000000
      0.3518000000D+02  0.1958000050D-01
      0.7904000000D+01  0.1242000032D+00
      0.2305000000D+01  0.3947140101D+00
      0.7171000000D+00  0.6273760161D+00
 P   1 1.00       0.000000000000
      0.2137000000D+00  0.1000000000D+01
 ****
      7 0
 S   7 1.00       0.000000000000
      0.7817000000D+04  0.1176000331D-02
      0.1176000000D+04  0.8968002523D-02
      0.2732000000D+03  0.4286801206D-01
      0.8117000000D+02  0.1439300405D+00
      0.2718000000D+02  0.3556301000D+00
      0.9532000000D+01  0.4612481297D+00
      0.3414000000D+01  0.1402060394D+00
 S   2 1.00       0.000000000000
      0.9532000000D+01 -0.1541530739D+00
      0.9398000000D+00  0.1056914507D+01
 S   1 1.00       0.000000000000
      0.2846000000D+00  0.1000000000D+01
 P   4 1.00       0.000000000000
      0.3518000000D+02  0.1958000050D-01
      0.7904000000D+01  0.1242000032D+00
      0.2305000000D+01  0.3947140101D+00
      0.7171000000D+00  0.6273760161D+00
 P   1 1.00       0.000000000000
      0.2137000000D+00  0.1000000000D+01
 ****
      8 0
 S   3 1.00       0.000000000000
      0.1098000000D+01 -0.1023676994D+00
      0.4178000000D+00 -0.3753172148D+00
      0.8720000000D-01  0.1215423149D+01
 S   3 1.00       0.000000000000
      0.4372000000D+01 -0.3637098367D+00
      0.1098000000D+01  0.8184533826D+00
      0.4178000000D+00  0.4184526423D+00
 S   1 1.00       0.000000000000
      0.3140000000D-01  0.1000000000D+01
 P   3 1.00       0.000000000000
      0.1252000000D+02 -0.4569080054D-01
      0.1491000000D+01  0.6203313074D+00
      0.4859000000D+00  0.4765329057D+00
 P   1 1.00       0.000000000000
      0.5300000000D-01  0.1000000000D+01
 P   1 1.00       0.000000000000
      0.1600000000D-01  0.1000000000D+01
 D   4 1.00       0.000000000000
      0.2021000000D+02  0.3416819898D-01
      0.5495000000D+01  0.1710005949D+00
      0.1699000000D+01  0.4405848869D+00
      0.4840000000D+00  0.6114245818D+00
 D   1 1.00       0.000000000000
      0.1157000000D+00  0.1000000000D+01
 ****
      9 0
 S   7 1.00       0.000000000000
      0.7817000000D+04  0.1176000331D-02
      0.1176000000D+04  0.8968002523D-02
      0.2732000000D+03  0.4286801206D-01
      0.8117000000D+02  0.1439300405D+00
      0.2718000000D+02  0.3556301000D+00
      0.9532000000D+01  0.4612481297D+00
      0.3414000000D+01  0.1402060394D+00
 S   2 1.00       0.000000000000
      0.9532000000D+01 -0.1541530739D+00
      0.9398000000D+00  0.1056914507D+01
 S   1 1.00       0.000000000000
      0.2846000000D+00  0.1000000000D+01
 P   4 1.00       0.000000000000
      0.3518000000D+02  0.1958000050D-01
      0.7904000000D+01  0.1242000032D+00
      0.2305000000D+01  0.3947140101D+00
      0.7171000000D+00  0.6273760161D+00
 P   1 1.00       0.000000000000
      0.2137000000D+00  0.1000000000D+01
 ****
     10 0
 S   3 1.00       0.000000000000
      0.1924060000D+02  0.3282807697D-01
      0.2899200000D+01  0.2312085421D+00
      0.6534000000D+00  0.8172399161D+00
 S   1 1.00       0.000000000000
      0.1776000000D+00  0.1000000000D+01
 ****
     11 0
 S   7 1.00       0.000000000000
      0.7817000000D+04  0.1176000331D-02
      0.1176000000D+04  0.8968002523D-02
      0.2732000000D+03  0.4286801206D-01
      0.8117000000D+02  0.1439300405D+00
      0.2718000000D+02  0.3556301000D+00
      0.9532000000D+01  0.4612481297D+00
      0.3414000000D+01  0.1402060394D+00
 S   2 1.00       0.000000000000
      0.9532000000D+01 -0.1541530739D+00
      0.9398000000D+00  0.1056914507D+01
 S   1 1.00       0.000000000000
      0.2846000000D+00  0.1000000000D+01
 P   4 1.00       0.000000000000
      0.3518000000D+02  0.1958000050D-01
      0.7904000000D+01  0.1242000032D+00
      0.2305000000D+01  0.3947140101D+00
      0.7171000000D+00  0.6273760161D+00
 P   1 1.00       0.000000000000
      0.2137000000D+00  0.1000000000D+01
 ****
     12 0
 S   3 1.00       0.000000000000
      0.1924060000D+02  0.3282807697D-01
      0.2899200000D+01  0.2312085421D+00
      0.6534000000D+00  0.8172399161D+00
 S   1 1.00       0.000000000000
      0.1776000000D+00  0.1000000000D+01
 ****

 Effective core potential in the form of general ECP input:
      1 0
 Ti1-ECP   2 10
 D component
  3
  1      265.3263909      -10.00000000    0.00000000
  2       47.7687815      -51.84278160    0.00000000
  2       11.8903334       -9.14291450    0.00000000
 S-D projection
  5
  0       81.4730696        3.00000000    0.00000000
  1       72.6496724       19.48255790    0.00000000
  2       31.8128213      207.33492790    0.00000000
  2        6.1664468      235.67445010    0.00000000
  2        5.8268347     -166.87843870    0.00000000
 P-D projection
  5
  0       50.2966943        5.00000000    0.00000000
  1       63.5089754        5.53488220    0.00000000
  2       26.0996084      177.84193840    0.00000000
  2        5.6022573      107.42071530    0.00000000
  2        5.2171069      -71.90659020    0.00000000
      2 0
 Ti2-ECP   2 10
 D component
  3
  1      265.3263909      -10.00000000    0.00000000
  2       47.7687815      -51.84278160    0.00000000
  2       11.8903334       -9.14291450    0.00000000
 S-D projection
  5
  0       81.4730696        3.00000000    0.00000000
  1       72.6496724       19.48255790    0.00000000
  2       31.8128213      207.33492790    0.00000000
  2        6.1664468      235.67445010    0.00000000
  2        5.8268347     -166.87843870    0.00000000
 P-D projection
  5
  0       50.2966943        5.00000000    0.00000000
  1       63.5089754        5.53488220    0.00000000
  2       26.0996084      177.84193840    0.00000000
  2        5.6022573      107.42071530    0.00000000
  2        5.2171069      -71.90659020    0.00000000
      8 0
 Ti8-ECP   2 10
 D component
  3
  1      265.3263909      -10.00000000    0.00000000
  2       47.7687815      -51.84278160    0.00000000
  2       11.8903334       -9.14291450    0.00000000
 S-D projection
  5
  0       81.4730696        3.00000000    0.00000000
  1       72.6496724       19.48255790    0.00000000
  2       31.8128213      207.33492790    0.00000000
  2        6.1664468      235.67445010    0.00000000
  2        5.8268347     -166.87843870    0.00000000
 P-D projection
  5
  0       50.2966943        5.00000000    0.00000000
  1       63.5089754        5.53488220    0.00000000
  2       26.0996084      177.84193840    0.00000000
  2        5.6022573      107.42071530    0.00000000
  2        5.2171069      -71.90659020    0.00000000
 
   133 basis functions,   339 primitive gaussians,   139 cartesian basis functions
    47 alpha electrons       46 beta electrons
       nuclear repulsion energy       709.3607093168 Hartrees.
 NAtoms=   12 NActive=   12 NUniq=   12 SFac= 1.00D+00 NAtFMM=   60 NAOKFM=F Big=F
 ------------------------------------------------------------------------------
 Polarizable Continuum Model (PCM)
 =================================
 Model                : PCM.
 Atomic radii         : UFF (Universal Force Field).
 Polarization charges : Total charges.
 Charge compensation  : None.
 Solution method      : On-the-fly selection.
 Cavity type          : Scaled VdW (van der Waals Surface) (Alpha=1.100).
 Cavity algorithm     : GePol (No added spheres)
                        Default sphere list used, NSphG=   12.
                        Lebedev-Laikov grids with approx.  5.0 points / Ang**2.
                        Smoothing algorithm: York/Karplus (Gamma=1.0000).
                        Polarization charges: spherical gaussians, with
                                              point-specific exponents (IZeta= 3).
                        Self-potential: point-specific (ISelfS= 7).
                        Self-field    : sphere-specific E.n sum rule (ISelfD= 2).
 Solvent              : Ethanol, Eps=  24.852000 Eps(inf)=   1.852593
 ------------------------------------------------------------------------------
 Spheres list:
 ISph  on   Nord     Re0    Alpha      Xe            Ye            Ze
    1  Ti      1    1.5875  1.100      0.324101     -0.000009      0.051399
    2  Ti      2    1.5875  1.100      3.067841     -0.000006     -0.374371
    3   O      3    1.7500  1.100      1.657502     -1.232348     -0.158651
    4   O      4    1.7500  1.100      1.657490      1.232342     -0.158621
    5   O      5    1.7500  1.100     -1.108389      0.000029      1.274919
    6   O      6    1.7500  1.100     -1.034969     -0.000010     -1.186111
    7   O      7    1.7500  1.100      3.938241      0.000015      1.028669
    8  Ti      8    1.5875  1.100     -2.451779      0.000008      0.027779
    9   O      9    1.7500  1.100     -3.360658     -1.530413      0.004959
   10   H     10    1.4430  1.100     -3.895987     -2.336203      0.007019
   11   O     11    1.7500  1.100     -3.360861      1.530277      0.004799
   12   H     12    1.4430  1.100     -3.894442      2.337217      0.007489
 ------------------------------------------------------------------------------
   1 Symmetry operations used in ECPInt.
 ECPInt:  NShTT=    2016 NPrTT=   13777 LenC2=    1945 LenP2D=    9110.
 LDataN:  DoStor=T MaxTD1= 4 Len=   56
 ExpMin= 1.60D-02 ExpMax= 7.82D+03 ExpMxC= 2.73D+02 IAcc=3 IRadAn=         5 AccDes= 0.00D+00
 Harris functional with IExCor=  402 and IRadAn=       5 diagonalized for initial guess.
 HarFok:  IExCor=  402 AccDes= 0.00D+00 IRadAn=         5 IDoV= 1 UseB2=F ITyADJ=14
 ICtDFT=  3500011 ScaDFX=  1.000000  1.000000  1.000000  1.000000
 FoFCou: FMM=F IPFlag=           0 FMFlag=      100000 FMFlg1=           0
         NFxFlg=           0 DoJE=T BraDBF=F KetDBF=T FulRan=T
         wScrn=  0.000000 ICntrl=       500 IOpCl=  0 I1Cent=   200000004 NGrid=           0
         NMat0=    1 NMatS0=      1 NMatT0=    0 NMatD0=    1 NMtDS0=    0 NMtDT0=    0
 Petite list used in FoFCou.
 Initial guess <Sx>= 0.0000 <Sy>= 0.0000 <Sz>= 0.5000 <S**2>= 0.7500 S= 0.5000
 Inv3:  Mode=1 IEnd=     7282092.
 Iteration    1 A*A^-1 deviation from unit magnitude is 2.78D-15 for    583.
 Iteration    1 A*A^-1 deviation from orthogonality  is 2.66D-15 for   1308     98.
 Iteration    1 A^-1*A deviation from unit magnitude is 2.55D-15 for    583.
 Iteration    1 A^-1*A deviation from orthogonality  is 2.28D-14 for   1006    952.
 EnCoef did     7 forward-backward iterations
 EnCoef did     3 forward-backward iterations
 EnCoef did     6 forward-backward iterations
 Error on total polarization charges =  0.01849
 SCF Done:  E(UB3LYP) =  -702.427706272     A.U. after   41 cycles
            NFock= 41  Conv=0.55D-08     -V/T= 2.1751
 <Sx>= 0.0000 <Sy>= 0.0000 <Sz>= 0.5000 <S**2>= 0.7861 S= 0.5179
 <L.S>=  0.00000000000    
 Annihilation of the first spin contaminant:
 S**2 before annihilation     0.7861,   after     0.7510

 **********************************************************************

            Population analysis using the SCF density.

 **********************************************************************

 Orbital symmetries:
 Alpha Orbitals:
       Occupied  (A) (A) (A) (A) (A) (A) (A) (A) (A) (A) (A) (A)
                 (A) (A) (A) (A) (A) (A) (A) (A) (A) (A) (A) (A)
                 (A) (A) (A) (A) (A) (A) (A) (A) (A) (A) (A) (A)
                 (A) (A) (A) (A) (A) (A) (A) (A) (A) (A) (A)
       Virtual   (A) (A) (A) (A) (A) (A) (A) (A) (A) (A) (A) (A)
                 (A) (A) (A) (A) (A) (A) (A) (A) (A) (A) (A) (A)
                 (A) (A) (A) (A) (A) (A) (A) (A) (A) (A) (A) (A)
                 (A) (A) (A) (A) (A) (A) (A) (A) (A) (A) (A) (A)
                 (A) (A) (A) (A) (A) (A) (A) (A) (A) (A) (A) (A)
                 (A) (A) (A) (A) (A) (A) (A) (A) (A) (A) (A) (A)
                 (A) (A) (A) (A) (A) (A) (A) (A) (A) (A) (A) (A)
                 (A) (A)
 Beta  Orbitals:
       Occupied  (A) (A) (A) (A) (A) (A) (A) (A) (A) (A) (A) (A)
                 (A) (A) (A) (A) (A) (A) (A) (A) (A) (A) (A) (A)
                 (A) (A) (A) (A) (A) (A) (A) (A) (A) (A) (A) (A)
                 (A) (A) (A) (A) (A) (A) (A) (A) (A) (A)
       Virtual   (A) (A) (A) (A) (A) (A) (A) (A) (A) (A) (A) (A)
                 (A) (A) (A) (A) (A) (A) (A) (A) (A) (A) (A) (A)
                 (A) (A) (A) (A) (A) (A) (A) (A) (A) (A) (A) (A)
                 (A) (A) (A) (A) (A) (A) (A) (A) (A) (A) (A) (A)
                 (A) (A) (A) (A) (A) (A) (A) (A) (A) (A) (A) (A)
                 (A) (A) (A) (A) (A) (A) (A) (A) (A) (A) (A) (A)
                 (A) (A) (A) (A) (A) (A) (A) (A) (A) (A) (A) (A)
                 (A) (A) (A)
 The electronic state is 2-A.
 Alpha  occ. eigenvalues --  -19.22115 -19.20289 -19.20288 -19.19221 -19.18860
 Alpha  occ. eigenvalues --  -19.16738 -19.16737  -2.50967  -2.50202  -2.49383
 Alpha  occ. eigenvalues --   -1.64383  -1.63552  -1.62571  -1.62568  -1.61960
 Alpha  occ. eigenvalues --   -1.61856  -1.61595  -1.61428  -1.60951  -0.99527
 Alpha  occ. eigenvalues --   -0.98849  -0.98788  -0.97453  -0.96978  -0.96422
 Alpha  occ. eigenvalues --   -0.96007  -0.53979  -0.53061  -0.46191  -0.45309
 Alpha  occ. eigenvalues --   -0.44662  -0.43436  -0.43100  -0.42103  -0.41713
 Alpha  occ. eigenvalues --   -0.41228  -0.40758  -0.40484  -0.40165  -0.39402
 Alpha  occ. eigenvalues --   -0.37742  -0.37527  -0.37034  -0.36855  -0.34858
 Alpha  occ. eigenvalues --   -0.34315  -0.33771
 Alpha virt. eigenvalues --   -0.14314  -0.13189  -0.11677  -0.10898  -0.10566
 Alpha virt. eigenvalues --   -0.10344  -0.08143  -0.07748  -0.06737  -0.05816
 Alpha virt. eigenvalues --   -0.05656  -0.05011  -0.04488  -0.04266  -0.03749
 Alpha virt. eigenvalues --   -0.01240  -0.00745   0.00268   0.00723   0.01408
 Alpha virt. eigenvalues --    0.01644   0.02222   0.03833   0.04040   0.04311
 Alpha virt. eigenvalues --    0.06248   0.08625   0.10959   0.11285   0.12941
 Alpha virt. eigenvalues --    0.13070   0.14618   0.15501   0.15536   0.16524
 Alpha virt. eigenvalues --    0.18018   0.19456   0.20389   0.29750   0.29766
 Alpha virt. eigenvalues --    0.31190   0.31904   0.32529   0.32747   0.32749
 Alpha virt. eigenvalues --    0.35110   0.35197   0.36200   0.36457   0.39499
 Alpha virt. eigenvalues --    0.43229   0.47714   0.49094   0.59743   0.63941
 Alpha virt. eigenvalues --    0.68360   0.70792   0.71332   0.72651   0.75034
 Alpha virt. eigenvalues --    0.76298   0.77655   0.78359   0.79869   0.81368
 Alpha virt. eigenvalues --    0.82465   0.84981   0.87061   0.89262   0.90704
 Alpha virt. eigenvalues --    0.94761   0.94986   0.96372   1.01266   1.03444
 Alpha virt. eigenvalues --    1.06301   1.29796   1.45101   1.46278   1.50590
 Alpha virt. eigenvalues --    1.56668   1.58605   1.66927   3.74333  11.04912
 Alpha virt. eigenvalues --   16.30193
  Beta  occ. eigenvalues --  -19.20819 -19.19745 -19.19745 -19.18769 -19.18342
  Beta  occ. eigenvalues --  -19.16660 -19.16659  -2.51594  -2.50617  -2.49553
  Beta  occ. eigenvalues --   -1.64990  -1.64174  -1.63148  -1.63026  -1.62350
  Beta  occ. eigenvalues --   -1.62313  -1.61721  -1.61695  -1.61169  -0.99245
  Beta  occ. eigenvalues --   -0.98589  -0.97438  -0.95943  -0.95308  -0.94655
  Beta  occ. eigenvalues --   -0.93254  -0.53921  -0.53005  -0.44746  -0.44231
  Beta  occ. eigenvalues --   -0.43505  -0.42558  -0.41431  -0.40478  -0.40395
  Beta  occ. eigenvalues --   -0.40205  -0.39876  -0.39014  -0.38854  -0.36707
  Beta  occ. eigenvalues --   -0.36466  -0.36345  -0.35355  -0.33614  -0.33511
  Beta  occ. eigenvalues --   -0.32813
  Beta virt. eigenvalues --   -0.29038  -0.14558  -0.13583  -0.11719  -0.11050
  Beta virt. eigenvalues --   -0.10577  -0.09972  -0.08095  -0.07806  -0.06769
  Beta virt. eigenvalues --   -0.05860  -0.05621  -0.04899  -0.04407  -0.04278
  Beta virt. eigenvalues --   -0.03518  -0.01149  -0.00614   0.00304   0.00875
  Beta virt. eigenvalues --    0.01475   0.01679   0.02298   0.03860   0.04055
  Beta virt. eigenvalues --    0.04354   0.06390   0.08680   0.11044   0.11499
  Beta virt. eigenvalues --    0.13125   0.13139   0.14771   0.15543   0.15634
  Beta virt. eigenvalues --    0.16610   0.18166   0.19484   0.20486   0.29829
  Beta virt. eigenvalues --    0.29977   0.31323   0.32077   0.32573   0.32800
  Beta virt. eigenvalues --    0.32904   0.35107   0.35237   0.36248   0.36490
  Beta virt. eigenvalues --    0.39774   0.43376   0.47994   0.49158   0.60102
  Beta virt. eigenvalues --    0.64320   0.69333   0.71270   0.71847   0.72971
  Beta virt. eigenvalues --    0.75421   0.77395   0.77891   0.78953   0.81459
  Beta virt. eigenvalues --    0.81969   0.83593   0.85252   0.87243   0.90084
  Beta virt. eigenvalues --    0.91263   0.94952   0.95059   0.96729   1.01707
  Beta virt. eigenvalues --    1.03523   1.06547   1.31366   1.45646   1.46738
  Beta virt. eigenvalues --    1.51101   1.57031   1.59147   1.67652   3.74726
  Beta virt. eigenvalues --   11.05572  16.30749
     Alpha Molecular Orbital Coefficients:
                           1         2         3         4         5
                           O         O         O         O         O
     Eigenvalues --   -19.22115 -19.20289 -19.20288 -19.19221 -19.18860
   1 1   Ti 1S         -0.00004   0.00099   0.00126   0.00079   0.00120
   2        2S          0.00002   0.00028   0.00036   0.00022   0.00028
   3        3S          0.00015  -0.00033  -0.00042  -0.00033  -0.00006
   4        4PX         0.00002   0.00010   0.00013  -0.00010  -0.00009
   5        4PY        -0.00000   0.00020  -0.00015  -0.00000  -0.00000
   6        4PZ        -0.00000  -0.00002  -0.00002  -0.00017   0.00014
   7        5PX        -0.00032   0.00164   0.00207  -0.00211  -0.00162
   8        5PY         0.00000   0.00039  -0.00030  -0.00000  -0.00000
   9        5PZ        -0.00027  -0.00008  -0.00010  -0.00021   0.00040
  10        6PX        -0.00006   0.00011   0.00014  -0.00015  -0.00008
  11        6PY        -0.00000  -0.00038   0.00030  -0.00000  -0.00000
  12        6PZ         0.00025   0.00002   0.00002   0.00038  -0.00025
  13        7D 0        0.00000  -0.00003  -0.00004   0.00002   0.00001
  14        7D+1       -0.00001  -0.00001  -0.00001   0.00007  -0.00009
  15        7D-1        0.00000  -0.00002   0.00001   0.00000   0.00000
  16        7D+2       -0.00000   0.00000   0.00001   0.00003   0.00003
  17        7D-2       -0.00000   0.00007  -0.00006   0.00000  -0.00000
  18        8D 0       -0.00004  -0.00052  -0.00066  -0.00003  -0.00012
  19        8D+1        0.00012  -0.00030  -0.00038   0.00051  -0.00075
  20        8D-1       -0.00000  -0.00009   0.00007   0.00000   0.00000
  21        8D+2       -0.00003   0.00040   0.00050   0.00071   0.00099
  22        8D-2        0.00000   0.00074  -0.00058  -0.00000  -0.00000
  23 2   Ti 1S          0.00108   0.00011   0.00014   0.00030   0.00004
  24        2S          0.00048   0.00003   0.00003   0.00012   0.00003
  25        3S          0.00004  -0.00065  -0.00082   0.00120   0.00077
  26        4PX         0.00013  -0.00010  -0.00012  -0.00002  -0.00002
  27        4PY         0.00000   0.00016  -0.00013  -0.00000   0.00000
  28        4PZ         0.00027   0.00004   0.00005  -0.00000  -0.00001
  29        5PX         0.00038  -0.00011  -0.00014  -0.00057  -0.00034
  30        5PY         0.00000   0.00028  -0.00022   0.00000   0.00000
  31        5PZ         0.00097  -0.00005  -0.00006   0.00008   0.00018
  32        6PX        -0.00016   0.00018   0.00023  -0.00012  -0.00009
  33        6PY        -0.00000   0.00001  -0.00001   0.00000   0.00000
  34        6PZ        -0.00042  -0.00005  -0.00006  -0.00012   0.00011
  35        7D 0       -0.00002  -0.00004  -0.00005  -0.00001  -0.00003
  36        7D+1       -0.00001  -0.00000  -0.00001  -0.00001   0.00001
  37        7D-1       -0.00000   0.00002  -0.00002   0.00000   0.00000
  38        7D+2        0.00000   0.00000   0.00000  -0.00001  -0.00001
  39        7D-2        0.00000  -0.00012   0.00009   0.00000   0.00000
  40        8D 0        0.00028  -0.00026  -0.00033  -0.00005   0.00009
  41        8D+1        0.00036  -0.00013  -0.00016   0.00015  -0.00020
  42        8D-1        0.00000   0.00001  -0.00001   0.00000   0.00000
  43        8D+2        0.00015   0.00005   0.00006   0.00008  -0.00009
  44        8D-2        0.00000  -0.00028   0.00023  -0.00000  -0.00000
  45 3   O  1S          0.00001  -0.11630   0.99201  -0.00003  -0.00007
  46        2S          0.00003  -0.00069   0.00656   0.00001   0.00007
  47        3S         -0.00007   0.00015  -0.00453   0.00000  -0.00024
  48        4PX        -0.00002  -0.00000   0.00001   0.00001   0.00002
  49        4PY        -0.00000  -0.00015   0.00083   0.00003   0.00003
  50        4PZ        -0.00001  -0.00000   0.00002   0.00001  -0.00001
  51        5PX        -0.00003  -0.00002   0.00002  -0.00007  -0.00009
  52        5PY        -0.00004   0.00002  -0.00095  -0.00024  -0.00035
  53        5PZ         0.00002   0.00001  -0.00001  -0.00006   0.00008
  54 4   O  1S          0.00001   0.99201   0.11631  -0.00003  -0.00007
  55        2S          0.00003   0.00655   0.00084   0.00001   0.00007
  56        3S         -0.00007  -0.00444  -0.00090   0.00000  -0.00024
  57        4PX        -0.00002   0.00001  -0.00000   0.00001   0.00002
  58        4PY         0.00000  -0.00085  -0.00005  -0.00003  -0.00003
  59        4PZ        -0.00001   0.00002   0.00000   0.00001  -0.00001
  60        5PX        -0.00003   0.00003  -0.00001  -0.00007  -0.00009
  61        5PY         0.00004   0.00093   0.00020   0.00024   0.00035
  62        5PZ         0.00002  -0.00001   0.00000  -0.00006   0.00008
  63 5   O  1S         -0.00001   0.00007   0.00008  -0.00014   0.99881
  64        2S         -0.00003   0.00006   0.00008   0.00012   0.00666
  65        3S          0.00008  -0.00023  -0.00029  -0.00054  -0.00475
  66        4PX        -0.00002  -0.00001  -0.00001   0.00000  -0.00004
  67        4PY         0.00000  -0.00002   0.00001  -0.00000  -0.00000
  68        4PZ        -0.00001  -0.00003  -0.00004   0.00006  -0.00076
  69        5PX         0.00010  -0.00001  -0.00001  -0.00002  -0.00011
  70        5PY        -0.00000   0.00010  -0.00008   0.00000   0.00000
  71        5PZ         0.00002   0.00027   0.00034   0.00008   0.00096
  72 6   O  1S          0.00001   0.00002   0.00003   0.99881   0.00015
  73        2S          0.00001   0.00001   0.00001   0.00657   0.00012
  74        3S         -0.00005   0.00001   0.00001  -0.00451  -0.00053
  75        4PX        -0.00001  -0.00000  -0.00001   0.00000  -0.00000
  76        4PY         0.00000  -0.00000   0.00000   0.00000  -0.00000
  77        4PZ        -0.00000   0.00002   0.00002   0.00076  -0.00005
  78        5PX        -0.00000   0.00005   0.00007   0.00002   0.00005
  79        5PY        -0.00000   0.00003  -0.00002  -0.00000   0.00000
  80        5PZ         0.00001  -0.00019  -0.00024  -0.00090  -0.00015
  81 7   O  1S          0.99877  -0.00001  -0.00001  -0.00000   0.00001
  82        2S          0.00649   0.00000   0.00001   0.00002  -0.00002
  83        3S         -0.00366   0.00008   0.00010  -0.00010   0.00008
  84        4PX        -0.00053  -0.00002  -0.00002   0.00001  -0.00001
  85        4PY        -0.00000  -0.00002   0.00001  -0.00000   0.00000
  86        4PZ        -0.00065  -0.00002  -0.00002   0.00000   0.00002
  87        5PX         0.00040   0.00008   0.00010  -0.00007   0.00007
  88        5PY         0.00000   0.00006  -0.00004   0.00000  -0.00000
  89        5PZ         0.00056   0.00008   0.00010   0.00003  -0.00010
  90 8   Ti 1S         -0.00000   0.00009   0.00011   0.00035   0.00038
  91        2S          0.00001   0.00005   0.00006   0.00011   0.00014
  92        3S         -0.00034   0.00094   0.00119  -0.00099  -0.00084
  93        4PX         0.00001   0.00002   0.00003   0.00010   0.00010
  94        4PY         0.00000  -0.00001   0.00001   0.00000   0.00000
  95        4PZ         0.00001   0.00000   0.00000  -0.00015   0.00016
  96        5PX        -0.00015   0.00043   0.00054   0.00019   0.00022
  97        5PY         0.00000   0.00003  -0.00002   0.00000   0.00000
  98        5PZ         0.00011  -0.00005  -0.00006  -0.00034   0.00022
  99        6PX        -0.00003   0.00009   0.00012  -0.00025  -0.00024
 100        6PY         0.00000   0.00017  -0.00013   0.00000   0.00000
 101        6PZ        -0.00007   0.00001   0.00001  -0.00002  -0.00002
 102        7D 0       -0.00000   0.00002   0.00002   0.00000   0.00002
 103        7D+1       -0.00000   0.00001   0.00001  -0.00010   0.00010
 104        7D-1        0.00000  -0.00000   0.00000  -0.00000  -0.00000
 105        7D+2        0.00000   0.00001   0.00002   0.00002   0.00002
 106        7D-2       -0.00000  -0.00002   0.00002  -0.00000  -0.00000
 107        8D 0        0.00004  -0.00002  -0.00002   0.00012   0.00013
 108        8D+1        0.00007  -0.00004  -0.00005  -0.00032   0.00024
 109        8D-1       -0.00000  -0.00001   0.00001   0.00000  -0.00000
 110        8D+2       -0.00001  -0.00004  -0.00005   0.00053   0.00048
 111        8D-2        0.00000   0.00040  -0.00031  -0.00000  -0.00000
 112 9   O  1S         -0.00000   0.00001  -0.00002  -0.00000  -0.00000
 113        2S         -0.00000   0.00003  -0.00005   0.00001   0.00002
 114        3S          0.00000  -0.00018   0.00017   0.00007   0.00006
 115        4PX        -0.00000  -0.00002   0.00001   0.00001   0.00001
 116        4PY         0.00000  -0.00001  -0.00001   0.00003   0.00003
 117        4PZ         0.00000   0.00000  -0.00000   0.00001  -0.00001
 118        5PX         0.00001   0.00008  -0.00007   0.00000  -0.00001
 119        5PY         0.00000  -0.00000   0.00009  -0.00019  -0.00017
 120        5PZ         0.00000  -0.00001   0.00000  -0.00004   0.00004
 121 10  H  1S         -0.00000   0.00003  -0.00000  -0.00006  -0.00005
 122        2S          0.00002  -0.00001  -0.00001   0.00005   0.00005
 123 11  O  1S         -0.00000  -0.00002   0.00001  -0.00000  -0.00000
 124        2S         -0.00000  -0.00005   0.00002   0.00001   0.00002
 125        3S          0.00000   0.00021  -0.00014   0.00007   0.00006
 126        4PX        -0.00000   0.00002  -0.00001   0.00001   0.00001
 127        4PY        -0.00000   0.00001   0.00001  -0.00003  -0.00003
 128        4PZ         0.00000  -0.00000   0.00000   0.00001  -0.00001
 129        5PX         0.00001  -0.00009   0.00006   0.00000  -0.00001
 130        5PY        -0.00000  -0.00009  -0.00002   0.00019   0.00017
 131        5PZ         0.00000   0.00000  -0.00001  -0.00004   0.00004
 132 12  H  1S         -0.00000  -0.00001   0.00003  -0.00006  -0.00005
 133        2S          0.00002  -0.00001  -0.00002   0.00005   0.00005
                           6         7         8         9        10
                           O         O         O         O         O
     Eigenvalues --   -19.16738 -19.16737  -2.50967  -2.50202  -2.49383
   1 1   Ti 1S         -0.00001  -0.00001   0.00033  -0.01085   0.00272
   2        2S          0.00005   0.00005   0.11634   0.98936  -0.11038
   3        3S          0.00030   0.00028   0.00442   0.00759  -0.00251
   4        4PX        -0.00004  -0.00003   0.00160   0.00196  -0.00173
   5        4PY        -0.00001   0.00001   0.00000   0.00000  -0.00000
   6        4PZ         0.00000   0.00000  -0.00075  -0.00362   0.00038
   7        5PX         0.00021   0.00020   0.00015  -0.00041  -0.00010
   8        5PY        -0.00013   0.00013   0.00000   0.00000   0.00000
   9        5PZ        -0.00002  -0.00002  -0.00021  -0.00074   0.00034
  10        6PX        -0.00009  -0.00008   0.00014  -0.00026   0.00108
  11        6PY         0.00025  -0.00027   0.00000   0.00000   0.00000
  12        6PZ        -0.00002  -0.00002   0.00044   0.00012  -0.00021
  13        7D 0       -0.00002  -0.00002  -0.00051  -0.00141  -0.00032
  14        7D+1        0.00000   0.00000  -0.00037  -0.00005  -0.00006
  15        7D-1        0.00000  -0.00000   0.00000   0.00000  -0.00000
  16        7D+2        0.00001   0.00001   0.00098   0.00180   0.00053
  17        7D-2        0.00001  -0.00001   0.00000   0.00000   0.00000
  18        8D 0        0.00001   0.00001   0.00225   0.00214  -0.00417
  19        8D+1       -0.00000  -0.00000   0.00168   0.00123   0.00081
  20        8D-1        0.00002  -0.00003  -0.00000   0.00000  -0.00000
  21        8D+2       -0.00008  -0.00008   0.00315  -0.00567   0.00041
  22        8D-2       -0.00033   0.00035  -0.00000  -0.00000  -0.00000
  23 2   Ti 1S         -0.00001  -0.00001  -0.01115   0.00165   0.00050
  24        2S         -0.00000  -0.00000   0.99436  -0.11753   0.00699
  25        3S         -0.00023  -0.00022   0.00072  -0.00343  -0.00057
  26        4PX        -0.00000  -0.00000   0.00008  -0.00152   0.00043
  27        4PY         0.00001  -0.00001   0.00000   0.00000   0.00000
  28        4PZ         0.00000   0.00000   0.02307  -0.00247   0.00016
  29        5PX         0.00012   0.00011   0.00454   0.00171  -0.00103
  30        5PY         0.00010  -0.00011  -0.00000   0.00000   0.00000
  31        5PZ        -0.00002  -0.00002  -0.00202   0.00123  -0.00047
  32        6PX         0.00006   0.00006  -0.00093   0.00044   0.00037
  33        6PY        -0.00009   0.00010  -0.00000  -0.00000  -0.00000
  34        6PZ         0.00000   0.00000  -0.00036  -0.00043   0.00016
  35        7D 0        0.00000   0.00000  -0.00018  -0.00033   0.00006
  36        7D+1        0.00000   0.00000  -0.00100  -0.00017   0.00002
  37        7D-1       -0.00000   0.00000  -0.00000   0.00000  -0.00000
  38        7D+2        0.00000   0.00000   0.00109   0.00082  -0.00021
  39        7D-2        0.00001  -0.00001  -0.00000   0.00000   0.00000
  40        8D 0        0.00000   0.00000   0.00029   0.00271  -0.00053
  41        8D+1       -0.00000  -0.00000   0.00173   0.00101   0.00037
  42        8D-1        0.00000  -0.00000  -0.00000  -0.00000  -0.00000
  43        8D+2       -0.00003  -0.00003  -0.00135   0.00247   0.00037
  44        8D-2       -0.00007   0.00008   0.00000  -0.00000  -0.00000
  45 3   O  1S         -0.00001   0.00002  -0.00281  -0.00279   0.00035
  46        2S          0.00003  -0.00005   0.00499   0.00508  -0.00024
  47        3S         -0.00015   0.00018   0.00608   0.00557  -0.00239
  48        4PX         0.00001   0.00001   0.00381  -0.00585   0.00061
  49        4PY        -0.00001  -0.00000   0.00468   0.00446  -0.00065
  50        4PZ         0.00000  -0.00000  -0.00063   0.00093  -0.00006
  51        5PX         0.00003  -0.00007  -0.00267   0.00485  -0.00011
  52        5PY         0.00002   0.00004  -0.00151  -0.00021  -0.00001
  53        5PZ        -0.00002   0.00003   0.00072  -0.00075  -0.00037
  54 4   O  1S          0.00002  -0.00001  -0.00281  -0.00279   0.00035
  55        2S         -0.00005   0.00004   0.00499   0.00508  -0.00024
  56        3S          0.00017  -0.00016   0.00608   0.00557  -0.00238
  57        4PX         0.00001   0.00001   0.00381  -0.00585   0.00061
  58        4PY         0.00000   0.00001  -0.00468  -0.00446   0.00065
  59        4PZ        -0.00000   0.00000  -0.00063   0.00093  -0.00006
  60        5PX        -0.00007   0.00004  -0.00267   0.00485  -0.00011
  61        5PY        -0.00005  -0.00002   0.00151   0.00021   0.00001
  62        5PZ         0.00002  -0.00002   0.00072  -0.00075  -0.00037
  63 5   O  1S         -0.00000  -0.00000  -0.00028  -0.00277  -0.00275
  64        2S         -0.00001  -0.00001   0.00081   0.00438   0.00532
  65        3S          0.00013   0.00012  -0.00044   0.00858   0.00420
  66        4PX        -0.00002  -0.00002   0.00056   0.00400  -0.00561
  67        4PY         0.00001  -0.00001  -0.00000  -0.00000  -0.00000
  68        4PZ        -0.00002  -0.00002  -0.00037  -0.00456  -0.00453
  69        5PX         0.00013   0.00012  -0.00079  -0.00306   0.00418
  70        5PY         0.00000  -0.00000   0.00000   0.00000   0.00000
  71        5PZ         0.00007   0.00007   0.00006   0.00016   0.00165
  72 6   O  1S         -0.00000  -0.00000  -0.00033  -0.00322  -0.00233
  73        2S         -0.00001  -0.00001   0.00118   0.00562   0.00446
  74        3S          0.00014   0.00013  -0.00181   0.00754   0.00377
  75        4PX        -0.00002  -0.00002   0.00057   0.00460  -0.00534
  76        4PY         0.00000  -0.00000   0.00000   0.00000   0.00000
  77        4PZ         0.00002   0.00002   0.00045   0.00529   0.00376
  78        5PX         0.00012   0.00011  -0.00103  -0.00389   0.00387
  79        5PY         0.00002  -0.00002  -0.00000   0.00000   0.00000
  80        5PZ        -0.00006  -0.00006  -0.00018  -0.00052  -0.00141
  81 7   O  1S          0.00000   0.00000  -0.00639   0.00079  -0.00005
  82        2S         -0.00000  -0.00000   0.01372  -0.00120   0.00012
  83        3S          0.00001   0.00001   0.00257  -0.00267   0.00004
  84        4PX        -0.00000  -0.00000  -0.00700   0.00101  -0.00008
  85        4PY        -0.00000   0.00000  -0.00000   0.00000  -0.00000
  86        4PZ        -0.00000  -0.00000  -0.01180   0.00152  -0.00012
  87        5PX         0.00000   0.00000   0.00212  -0.00077   0.00006
  88        5PY         0.00001  -0.00001   0.00000   0.00000   0.00000
  89        5PZ         0.00000   0.00000   0.00517  -0.00089   0.00031
  90 8   Ti 1S          0.00102   0.00096   0.00045  -0.00020  -0.00897
  91        2S          0.00026   0.00025   0.00562   0.10968   0.99832
  92        3S         -0.00039  -0.00037  -0.00247  -0.00292   0.00737
  93        4PX        -0.00004  -0.00004  -0.00009   0.00225   0.00728
  94        4PY         0.00005  -0.00005  -0.00000  -0.00000   0.00000
  95        4PZ         0.00000   0.00000   0.00001   0.00011   0.00101
  96        5PX        -0.00062  -0.00058  -0.00076  -0.00445  -0.00382
  97        5PY         0.00060  -0.00063  -0.00000  -0.00000  -0.00000
  98        5PZ         0.00000   0.00000   0.00033   0.00050  -0.00002
  99        6PX         0.00020   0.00018  -0.00077   0.00042   0.00114
 100        6PY        -0.00038   0.00040  -0.00000  -0.00000  -0.00000
 101        6PZ         0.00001   0.00001  -0.00020  -0.00010   0.00007
 102        7D 0       -0.00006  -0.00005  -0.00001  -0.00084  -0.00102
 103        7D+1        0.00000   0.00000  -0.00004  -0.00004  -0.00008
 104        7D-1        0.00000  -0.00000  -0.00000  -0.00000  -0.00000
 105        7D+2       -0.00001  -0.00001   0.00006   0.00098   0.00048
 106        7D-2       -0.00001   0.00001   0.00000  -0.00000  -0.00000
 107        8D 0       -0.00031  -0.00029  -0.00074  -0.00367   0.00093
 108        8D+1        0.00001   0.00001   0.00031   0.00039   0.00009
 109        8D-1       -0.00000   0.00000  -0.00000  -0.00000  -0.00000
 110        8D+2       -0.00047  -0.00044  -0.00047  -0.00402  -0.00213
 111        8D-2       -0.00068   0.00072  -0.00000  -0.00000  -0.00000
 112 9   O  1S          0.02965   0.99837  -0.00002  -0.00034  -0.00339
 113        2S          0.00023   0.00651   0.00012   0.00126   0.00639
 114        3S         -0.00015  -0.00435  -0.00031  -0.00199   0.00593
 115        4PX         0.00002  -0.00040   0.00007   0.00050   0.00419
 116        4PY         0.00001  -0.00052   0.00006   0.00064   0.00699
 117        4PZ         0.00000   0.00001  -0.00000   0.00002   0.00010
 118        5PX        -0.00030   0.00040  -0.00037  -0.00152  -0.00544
 119        5PY        -0.00014   0.00051  -0.00023  -0.00058  -0.00800
 120        5PZ        -0.00000  -0.00002   0.00002  -0.00004  -0.00002
 121 10  H  1S         -0.00004   0.00008  -0.00002   0.00021  -0.00083
 122        2S         -0.00008   0.00101  -0.00026  -0.00153  -0.00796
 123 11  O  1S          0.99837  -0.02965  -0.00002  -0.00034  -0.00339
 124        2S          0.00651  -0.00015   0.00012   0.00126   0.00639
 125        3S         -0.00435   0.00011  -0.00031  -0.00199   0.00593
 126        4PX        -0.00040   0.00005   0.00007   0.00050   0.00419
 127        4PY         0.00052  -0.00004  -0.00006  -0.00064  -0.00699
 128        4PZ         0.00002  -0.00000  -0.00000   0.00002   0.00010
 129        5PX         0.00038  -0.00032  -0.00037  -0.00152  -0.00543
 130        5PY        -0.00050   0.00017   0.00023   0.00058   0.00801
 131        5PZ        -0.00002  -0.00000   0.00002  -0.00004  -0.00002
 132 12  H  1S          0.00008  -0.00005  -0.00002   0.00021  -0.00083
 133        2S          0.00100  -0.00014  -0.00026  -0.00153  -0.00796
                          11        12        13        14        15
                           O         O         O         O         O
     Eigenvalues --    -1.64383  -1.63552  -1.62571  -1.62568  -1.61960
   1 1   Ti 1S         -0.00270  -0.00127  -0.00003  -0.00427  -0.00000
   2        2S          0.00687   0.00112   0.00006   0.01024  -0.00000
   3        3S          0.00521   0.00268   0.00003   0.00559  -0.00000
   4        4PX        -0.60576   0.50943   0.00210   0.34012  -0.00005
   5        4PY        -0.00000   0.00000   0.33680  -0.00208   0.92363
   6        4PZ         0.04740   0.02161   0.00045   0.07131   0.00009
   7        5PX         0.02145   0.00170  -0.00005  -0.00916   0.00000
   8        5PY        -0.00000  -0.00000  -0.00939   0.00006   0.01124
   9        5PZ        -0.00100   0.00088   0.00000   0.00031   0.00000
  10        6PX         0.00650   0.00216  -0.00001  -0.00197   0.00000
  11        6PY        -0.00000   0.00000   0.00409  -0.00003  -0.00679
  12        6PZ        -0.00014   0.00034   0.00000   0.00004  -0.00000
  13        7D 0        0.00378  -0.00153   0.00001   0.00141  -0.00000
  14        7D+1        0.00311  -0.00150  -0.00001  -0.00092  -0.00000
  15        7D-1        0.00000  -0.00000  -0.00107   0.00001  -0.00213
  16        7D+2       -0.00100  -0.00264  -0.00004  -0.00589  -0.00000
  17        7D-2       -0.00000   0.00000   0.00409  -0.00003   0.00615
  18        8D 0       -0.00236  -0.00199   0.00001   0.00200   0.00000
  19        8D+1        0.00162   0.00275  -0.00000  -0.00043  -0.00000
  20        8D-1        0.00000   0.00000   0.00106  -0.00001  -0.00197
  21        8D+2       -0.00391  -0.00116  -0.00004  -0.00623  -0.00000
  22        8D-2        0.00000  -0.00000  -0.00201   0.00001   0.01128
  23 2   Ti 1S         -0.00248   0.01052  -0.00004  -0.00716  -0.00000
  24        2S         -0.00548  -0.03079   0.00008   0.01323   0.00000
  25        3S         -0.01849  -0.00864   0.00004   0.00737  -0.00000
  26        4PX         0.67609   0.20456   0.00398   0.64640  -0.00003
  27        4PY         0.00001  -0.00000   0.93364  -0.00576  -0.34565
  28        4PZ         0.28178   0.77291  -0.00328  -0.53100   0.00001
  29        5PX         0.01083  -0.00096  -0.00001  -0.00154   0.00000
  30        5PY        -0.00000   0.00000   0.00497  -0.00003  -0.01464
  31        5PZ        -0.00339   0.00123   0.00000   0.00069  -0.00000
  32        6PX        -0.00034   0.00072   0.00000   0.00072  -0.00000
  33        6PY         0.00000  -0.00000  -0.00171   0.00001   0.00646
  34        6PZ        -0.00071  -0.00130  -0.00000  -0.00050   0.00000
  35        7D 0        0.01156   0.01295  -0.00002  -0.00392   0.00000
  36        7D+1        0.01374   0.00934   0.00003   0.00491  -0.00000
  37        7D-1        0.00000   0.00000   0.00825  -0.00005  -0.00270
  38        7D+2       -0.00198   0.00451  -0.00000  -0.00072  -0.00000
  39        7D-2       -0.00000   0.00000  -0.00522   0.00003  -0.00005
  40        8D 0       -0.00223  -0.00042   0.00001   0.00130   0.00000
  41        8D+1        0.00047  -0.00021   0.00000   0.00019  -0.00000
  42        8D-1       -0.00000  -0.00000   0.00130  -0.00001  -0.00199
  43        8D+2       -0.00214   0.00306   0.00002   0.00313  -0.00000
  44        8D-2        0.00000  -0.00000  -0.00291   0.00002   0.00765
  45 3   O  1S          0.01635  -0.00586   0.01403   0.00396   0.00839
  46        2S         -0.03560   0.01326  -0.03282  -0.01022  -0.01953
  47        3S         -0.02402   0.00569  -0.01691  -0.00121  -0.00835
  48        4PX         0.00021  -0.00822  -0.00894  -0.01461   0.02338
  49        4PY        -0.02415   0.00862  -0.01519  -0.00617  -0.00908
  50        4PZ         0.00131   0.00572   0.00115   0.00057  -0.00350
  51        5PX         0.00161   0.00386   0.00451   0.00676  -0.00968
  52        5PY         0.00037   0.00012   0.00544   0.00162   0.00289
  53        5PZ         0.00040   0.00004  -0.00000  -0.00041   0.00109
  54 4   O  1S          0.01635  -0.00586  -0.01398   0.00414  -0.00839
  55        2S         -0.03560   0.01326   0.03269  -0.01062   0.01953
  56        3S         -0.02402   0.00570   0.01690  -0.00142   0.00835
  57        4PX         0.00021  -0.00822   0.00876  -0.01472  -0.02337
  58        4PY         0.02415  -0.00862  -0.01511   0.00635  -0.00908
  59        4PZ         0.00131   0.00572  -0.00114   0.00058   0.00350
  60        5PX         0.00161   0.00386  -0.00443   0.00681   0.00968
  61        5PY        -0.00037  -0.00012   0.00542  -0.00169   0.00289
  62        5PZ         0.00040   0.00004  -0.00000  -0.00041  -0.00108
  63 5   O  1S         -0.01036   0.00928   0.00006   0.00915  -0.00000
  64        2S          0.02150  -0.02084  -0.00013  -0.02058   0.00000
  65        3S          0.01901  -0.01091  -0.00006  -0.01047   0.00000
  66        4PX         0.00613  -0.00307   0.00002   0.00247   0.00000
  67        4PY        -0.00000   0.00000   0.00170  -0.00001   0.00518
  68        4PZ        -0.01518   0.01384   0.00009   0.01398  -0.00000
  69        5PX        -0.00100   0.00166  -0.00001  -0.00179  -0.00000
  70        5PY        -0.00000   0.00000  -0.00003   0.00000   0.00172
  71        5PZ        -0.00058   0.00012  -0.00001  -0.00117   0.00000
  72 6   O  1S         -0.01005   0.01033   0.00007   0.01084   0.00000
  73        2S          0.02125  -0.02277  -0.00015  -0.02444  -0.00000
  74        3S          0.01645  -0.01435  -0.00008  -0.01278  -0.00000
  75        4PX         0.00508  -0.00441  -0.00000  -0.00031  -0.00000
  76        4PY        -0.00000   0.00000   0.00194  -0.00001   0.00619
  77        4PZ         0.01519  -0.01519  -0.00010  -0.01582  -0.00000
  78        5PX        -0.00162   0.00220  -0.00000  -0.00067  -0.00000
  79        5PY         0.00000   0.00000   0.00061  -0.00000   0.00031
  80        5PZ         0.00050  -0.00025   0.00001   0.00195   0.00000
  81 7   O  1S         -0.02027  -0.02589   0.00002   0.00352   0.00000
  82        2S          0.04480   0.05854  -0.00005  -0.00819  -0.00000
  83        3S          0.02130   0.02288  -0.00002  -0.00285  -0.00000
  84        4PX        -0.01374  -0.02494   0.00007   0.01120   0.00000
  85        4PY        -0.00000  -0.00000   0.01049  -0.00006  -0.00403
  86        4PZ        -0.03149  -0.03518  -0.00000  -0.00022   0.00000
  87        5PX         0.00261   0.00382  -0.00001  -0.00112   0.00000
  88        5PY         0.00000   0.00000  -0.00018   0.00000   0.00080
  89        5PZ         0.00516   0.00588  -0.00000  -0.00082  -0.00000
  90 8   Ti 1S          0.00413  -0.00296  -0.00002  -0.00278  -0.00000
  91        2S         -0.00750   0.00810   0.00005   0.00868  -0.00000
  92        3S          0.01292   0.00443  -0.00003  -0.00612   0.00000
  93        4PX         0.19110  -0.24338  -0.00251  -0.40768  -0.00004
  94        4PY        -0.00002   0.00004   0.01978   0.00002   0.14531
  95        4PZ         0.00595  -0.00402  -0.00003  -0.00479   0.00000
  96        5PX         0.00912  -0.00073  -0.00004  -0.00624   0.00000
  97        5PY        -0.00000   0.00000   0.00361  -0.00002   0.00227
  98        5PZ         0.00059  -0.00026  -0.00001  -0.00101  -0.00000
  99        6PX        -0.00105   0.00025  -0.00000  -0.00035   0.00000
 100        6PY         0.00000   0.00000  -0.00174   0.00001   0.00149
 101        6PZ         0.00007  -0.00003   0.00000   0.00039   0.00000
 102        7D 0       -0.00128   0.00105   0.00000   0.00021  -0.00000
 103        7D+1        0.00022  -0.00027  -0.00000  -0.00024   0.00000
 104        7D-1        0.00000  -0.00000   0.00001  -0.00000  -0.00002
 105        7D+2        0.00508  -0.00545  -0.00004  -0.00695   0.00000
 106        7D-2        0.00000  -0.00000  -0.00014  -0.00000  -0.00041
 107        8D 0       -0.00332   0.00275   0.00001   0.00146  -0.00000
 108        8D+1        0.00037  -0.00004  -0.00000  -0.00038  -0.00000
 109        8D-1        0.00000  -0.00000   0.00006  -0.00000  -0.00025
 110        8D+2        0.00009   0.00067   0.00000   0.00020   0.00000
 111        8D-2        0.00000  -0.00000   0.00192  -0.00002   0.00713
 112 9   O  1S          0.00193  -0.00249   0.00031  -0.00418   0.00250
 113        2S         -0.00393   0.00507  -0.00074   0.00890  -0.00496
 114        3S         -0.00414   0.00501  -0.00075   0.00708  -0.00651
 115        4PX        -0.00076   0.00090  -0.00046   0.00157  -0.00285
 116        4PY        -0.00346   0.00424  -0.00044   0.00724  -0.00333
 117        4PZ        -0.00002   0.00004  -0.00001   0.00008  -0.00006
 118        5PX         0.00103  -0.00097   0.00096  -0.00219   0.00316
 119        5PY         0.00207  -0.00172   0.00036  -0.00377   0.00127
 120        5PZ         0.00000   0.00007   0.00002   0.00004  -0.00013
 121 10  H  1S          0.00021  -0.00004  -0.00006  -0.00008   0.00025
 122        2S          0.00173  -0.00189   0.00124  -0.00379   0.00222
 123 11  O  1S          0.00193  -0.00249  -0.00036  -0.00418  -0.00250
 124        2S         -0.00394   0.00508   0.00085   0.00891   0.00496
 125        3S         -0.00414   0.00502   0.00084   0.00707   0.00651
 126        4PX        -0.00077   0.00091   0.00048   0.00157   0.00285
 127        4PY         0.00346  -0.00425  -0.00053  -0.00725  -0.00333
 128        4PZ        -0.00002   0.00004   0.00001   0.00008   0.00006
 129        5PX         0.00103  -0.00097  -0.00098  -0.00218  -0.00315
 130        5PY        -0.00207   0.00172   0.00040   0.00377   0.00127
 131        5PZ         0.00000   0.00007  -0.00002   0.00005   0.00014
 132 12  H  1S          0.00021  -0.00004   0.00006  -0.00008  -0.00024
 133        2S          0.00173  -0.00189  -0.00128  -0.00378  -0.00222
                          16        17        18        19        20
                           O         O         O         O         O
     Eigenvalues --    -1.61856  -1.61595  -1.61428  -1.60951  -0.99527
   1 1   Ti 1S         -0.00163  -0.00001   0.00315  -0.00007   0.03404
   2        2S          0.00413   0.00001  -0.00789  -0.00040  -0.05771
   3        3S          0.00362  -0.00004   0.00171   0.00338   0.02068
   4        4PX        -0.00481  -0.00090   0.47120  -0.02962   0.00433
   5        4PY        -0.00007  -0.14530  -0.00019  -0.00001  -0.00001
   6        4PZ         0.96462   0.00018  -0.01563  -0.22657   0.00982
   7        5PX         0.00219   0.00001   0.01325   0.00457   0.05418
   8        5PY        -0.00000  -0.00353  -0.00001  -0.00000  -0.00000
   9        5PZ         0.00340   0.00000  -0.00094  -0.01511  -0.00499
  10        6PX         0.00083   0.00000   0.00474   0.00328   0.00811
  11        6PY         0.00000  -0.00182  -0.00001  -0.00000  -0.00000
  12        6PZ        -0.00236  -0.00000   0.00037   0.00712  -0.00140
  13        7D 0       -0.00144   0.00001  -0.00372   0.00060  -0.01007
  14        7D+1       -0.00405   0.00000  -0.00174  -0.00082  -0.00319
  15        7D-1        0.00000   0.00032   0.00000  -0.00000  -0.00000
  16        7D+2       -0.00018  -0.00000   0.00219  -0.00015   0.01756
  17        7D-2       -0.00000  -0.00147  -0.00000  -0.00000   0.00000
  18        8D 0       -0.00003   0.00002  -0.00994   0.00079  -0.00332
  19        8D+1       -0.00672  -0.00000   0.00217   0.00822  -0.00405
  20        8D-1        0.00000   0.00077   0.00000  -0.00000   0.00000
  21        8D+2        0.00144  -0.00000  -0.00062  -0.00067   0.00163
  22        8D-2        0.00000  -0.00779  -0.00001  -0.00000   0.00001
  23 2   Ti 1S         -0.00053   0.00000  -0.00161  -0.00005   0.00900
  24        2S          0.00117   0.00000  -0.00282  -0.00010  -0.03102
  25        3S         -0.00309   0.00001  -0.01200  -0.00689  -0.05656
  26        4PX        -0.08533  -0.00048   0.22315   0.00110   0.03737
  27        4PY         0.00002   0.03245   0.00003   0.00000  -0.00001
  28        4PZ         0.00681   0.00022  -0.09705   0.00510  -0.01413
  29        5PX         0.00140  -0.00000   0.00674   0.00398   0.03550
  30        5PY         0.00000   0.00434   0.00001   0.00000   0.00000
  31        5PZ         0.00311   0.00000  -0.00137   0.00057  -0.00379
  32        6PX         0.00013  -0.00000  -0.00054  -0.00032  -0.00212
  33        6PY        -0.00000  -0.00008   0.00000  -0.00000   0.00000
  34        6PZ        -0.00051   0.00000  -0.00085  -0.00230  -0.00125
  35        7D 0       -0.00019   0.00000  -0.00095   0.00005  -0.00803
  36        7D+1       -0.00159  -0.00000   0.00187   0.00034   0.00047
  37        7D-1        0.00000   0.00020   0.00000   0.00000   0.00000
  38        7D+2       -0.00065  -0.00000   0.00159   0.00019   0.00627
  39        7D-2       -0.00000   0.00028   0.00000   0.00000  -0.00000
  40        8D 0        0.00183  -0.00000   0.00159  -0.00020   0.00191
  41        8D+1       -0.00386  -0.00000   0.00267   0.00113   0.00348
  42        8D-1        0.00000   0.00040   0.00000   0.00000   0.00000
  43        8D+2       -0.00238  -0.00001   0.00272  -0.00009  -0.00742
  44        8D-2       -0.00000  -0.00269  -0.00000  -0.00000   0.00000
  45 3   O  1S          0.00116  -0.00153  -0.00395  -0.00008  -0.04510
  46        2S         -0.00238   0.00411   0.00939   0.00011   0.09582
  47        3S         -0.00195  -0.00092   0.00193   0.00063   0.09235
  48        4PX         0.00432  -0.00324  -0.01015  -0.00031  -0.00142
  49        4PY        -0.00168   0.00161   0.00568   0.00009   0.02039
  50        4PZ         0.00521   0.00054   0.00157  -0.00142   0.00028
  51        5PX        -0.00157   0.00213   0.00508   0.00017   0.00032
  52        5PY        -0.00036  -0.00068  -0.00032   0.00053   0.00967
  53        5PZ         0.00112  -0.00056  -0.00131  -0.00031   0.00077
  54 4   O  1S          0.00116   0.00154  -0.00395  -0.00008  -0.04511
  55        2S         -0.00238  -0.00414   0.00938   0.00011   0.09586
  56        3S         -0.00195   0.00091   0.00193   0.00063   0.09238
  57        4PX         0.00432   0.00328  -0.01014  -0.00031  -0.00142
  58        4PY         0.00168   0.00163  -0.00567  -0.00009  -0.02040
  59        4PZ         0.00521  -0.00054   0.00157  -0.00142   0.00028
  60        5PX        -0.00158  -0.00215   0.00507   0.00017   0.00032
  61        5PY         0.00036  -0.00068   0.00032  -0.00053  -0.00967
  62        5PZ         0.00112   0.00057  -0.00131  -0.00031   0.00077
  63 5   O  1S         -0.01296   0.00001  -0.00688  -0.00928  -0.05206
  64        2S          0.03018  -0.00002   0.01537   0.02159   0.10941
  65        3S          0.01564  -0.00002   0.00890   0.01107   0.10716
  66        4PX         0.01128   0.00004  -0.02050  -0.02077  -0.00097
  67        4PY        -0.00000   0.00482   0.00001   0.00000  -0.00000
  68        4PZ        -0.01425   0.00001  -0.01031  -0.00986  -0.02490
  69        5PX        -0.00442  -0.00002   0.01065   0.00911   0.00172
  70        5PY        -0.00000   0.00053  -0.00000   0.00000  -0.00000
  71        5PZ         0.00523   0.00000   0.00192   0.00341  -0.00852
  72 6   O  1S          0.01386   0.00001  -0.00380   0.00852  -0.04981
  73        2S         -0.03247  -0.00001   0.00858  -0.02003   0.10380
  74        3S         -0.01521  -0.00001   0.00482  -0.01053   0.10577
  75        4PX        -0.01437   0.00003  -0.01781   0.02283  -0.00128
  76        4PY        -0.00000   0.00400   0.00001   0.00000  -0.00000
  77        4PZ        -0.01492  -0.00001   0.00588  -0.00922   0.02328
  78        5PX         0.00543  -0.00002   0.00966  -0.01046   0.00242
  79        5PY        -0.00000   0.00108   0.00000   0.00000  -0.00000
  80        5PZ         0.00550  -0.00000  -0.00098   0.00373   0.00966
  81 7   O  1S          0.00138   0.00000  -0.00122  -0.00017  -0.01034
  82        2S         -0.00306  -0.00001   0.00348   0.00061   0.02385
  83        3S         -0.00089   0.00000  -0.00148  -0.00069   0.01682
  84        4PX         0.00026  -0.00000   0.00126  -0.00009  -0.00194
  85        4PY         0.00000   0.00038   0.00000   0.00000  -0.00000
  86        4PZ         0.00261   0.00001  -0.00348  -0.00030  -0.00493
  87        5PX         0.00152   0.00000   0.00005  -0.00052   0.00016
  88        5PY        -0.00000  -0.00002   0.00000   0.00000  -0.00000
  89        5PZ        -0.00181  -0.00000   0.00146   0.00056   0.00256
  90 8   Ti 1S          0.00028   0.00000  -0.00013   0.00032   0.06345
  91        2S         -0.00045   0.00001  -0.00646  -0.00066  -0.10692
  92        3S          0.00024   0.00004   0.00534   0.00391   0.00265
  93        4PX         0.02200  -0.00137   0.84211  -0.07923   0.03917
  94        4PY        -0.00015   0.98155   0.00171   0.00013  -0.00010
  95        4PZ         0.21895  -0.00024   0.07876   0.96731  -0.00143
  96        5PX        -0.00003   0.00001   0.00879   0.00112   0.00747
  97        5PY        -0.00000   0.00996   0.00002   0.00000   0.00001
  98        5PZ        -0.00871  -0.00000   0.00100   0.01238   0.00042
  99        6PX        -0.00016   0.00001  -0.00090  -0.00060  -0.00243
 100        6PY        -0.00000   0.00094   0.00000   0.00000   0.00000
 101        6PZ         0.00383   0.00000  -0.00030  -0.00503   0.00081
 102        7D 0        0.00027  -0.00000   0.00241   0.00067  -0.03344
 103        7D+1        0.00400  -0.00000   0.00133   0.00940   0.00244
 104        7D-1        0.00000   0.00005   0.00000   0.00000  -0.00000
 105        7D+2        0.00038  -0.00001   0.00913  -0.00063  -0.01530
 106        7D-2        0.00000  -0.00560  -0.00001  -0.00000  -0.00004
 107        8D 0       -0.00012  -0.00001   0.00680  -0.00031  -0.00148
 108        8D+1       -0.00403   0.00000   0.00025   0.00733   0.00002
 109        8D-1        0.00000  -0.00015   0.00000  -0.00000   0.00000
 110        8D+2       -0.00091   0.00002   0.00256   0.00000   0.00075
 111        8D-2        0.00000  -0.00681  -0.00000  -0.00000   0.00001
 112 9   O  1S          0.00029   0.01675   0.00872  -0.00056  -0.15197
 113        2S         -0.00053  -0.03713  -0.01973   0.00125   0.32585
 114        3S         -0.00082  -0.02297  -0.01058   0.00070   0.29604
 115        4PX        -0.00013  -0.01724  -0.00368   0.00003  -0.03115
 116        4PY        -0.00052  -0.02314  -0.01521   0.00097  -0.04400
 117        4PZ         0.00134  -0.00048   0.00025   0.00658   0.00081
 118        5PX        -0.00009   0.01045   0.00777  -0.00036   0.00155
 119        5PY         0.00046   0.01910   0.00957  -0.00049   0.00185
 120        5PZ         0.00065   0.00006   0.00019   0.00081   0.00023
 121 10  H  1S          0.00005  -0.00009  -0.00005   0.00001   0.10511
 122        2S          0.00023   0.01963   0.01076  -0.00054   0.01594
 123 11  O  1S          0.00029  -0.01678   0.00866  -0.00056  -0.15217
 124        2S         -0.00054   0.03719  -0.01961   0.00125   0.32628
 125        3S         -0.00083   0.02302  -0.01049   0.00071   0.29644
 126        4PX        -0.00013   0.01725  -0.00363   0.00003  -0.03101
 127        4PY         0.00053  -0.02318   0.01513  -0.00097   0.04420
 128        4PZ         0.00134   0.00048   0.00024   0.00658   0.00088
 129        5PX        -0.00009  -0.01044   0.00772  -0.00036   0.00159
 130        5PY        -0.00046   0.01915  -0.00952   0.00050  -0.00185
 131        5PZ         0.00064  -0.00006   0.00018   0.00081   0.00025
 132 12  H  1S          0.00005   0.00009  -0.00005   0.00001   0.10525
 133        2S          0.00024  -0.01967   0.01070  -0.00055   0.01598
                          21        22        23        24        25
                           O         O         O         O         O
     Eigenvalues --    -0.98849  -0.98788  -0.97453  -0.96978  -0.96422
   1 1   Ti 1S          0.08336  -0.00022   0.00002  -0.03483   0.01552
   2        2S         -0.11994   0.00030  -0.00003   0.03820  -0.02493
   3        3S          0.06360  -0.00019   0.00001  -0.03245   0.01614
   4        4PX        -0.08887   0.00026   0.00002  -0.06499   0.17422
   5        4PY        -0.00004  -0.00023   0.15446  -0.00001  -0.00002
   6        4PZ         0.02270  -0.00006   0.00000  -0.01473   0.07682
   7        5PX        -0.07324   0.00026  -0.00001  -0.11421   0.01445
   8        5PY         0.00002   0.00468  -0.01943   0.00000   0.00000
   9        5PZ         0.00186  -0.00001  -0.00000   0.00811  -0.01723
  10        6PX        -0.01401   0.00005  -0.00000  -0.02289   0.00875
  11        6PY         0.00002   0.00473  -0.00165   0.00000  -0.00000
  12        6PZ        -0.00230   0.00000  -0.00000   0.00103  -0.00013
  13        7D 0       -0.03308   0.00009  -0.00000  -0.00334   0.02414
  14        7D+1       -0.01331   0.00004  -0.00000  -0.00843   0.05474
  15        7D-1       -0.00000   0.00007   0.01264  -0.00000  -0.00000
  16        7D+2        0.02588  -0.00006   0.00001  -0.01684   0.02526
  17        7D-2        0.00002  -0.00062  -0.08351   0.00000   0.00001
  18        8D 0       -0.01336   0.00004  -0.00000   0.01035   0.01077
  19        8D+1       -0.00569   0.00001  -0.00000   0.00891  -0.00754
  20        8D-1        0.00000   0.00003   0.00042  -0.00000   0.00000
  21        8D+2        0.02163  -0.00006   0.00001  -0.01716   0.00916
  22        8D-2       -0.00003  -0.00743   0.01171  -0.00000  -0.00000
  23 2   Ti 1S          0.05422  -0.00015   0.00002   0.06772  -0.00207
  24        2S         -0.09813   0.00026  -0.00003  -0.09728  -0.00227
  25        3S         -0.01076  -0.00001  -0.00001   0.08044  -0.03229
  26        4PX         0.10435  -0.00027  -0.00000  -0.12632  -0.10248
  27        4PY        -0.00003   0.00042   0.12786  -0.00001  -0.00002
  28        4PZ        -0.06151   0.00017  -0.00003  -0.19380  -0.06253
  29        5PX        -0.00557   0.00004   0.00000  -0.06738   0.02945
  30        5PY         0.00000  -0.00050  -0.01602  -0.00000   0.00000
  31        5PZ         0.00704  -0.00002   0.00000   0.02420   0.00905
  32        6PX         0.00415  -0.00001   0.00000   0.00606  -0.00287
  33        6PY        -0.00001  -0.00171   0.00530  -0.00000  -0.00000
  34        6PZ        -0.00035   0.00000  -0.00000   0.00161  -0.00185
  35        7D 0       -0.02038   0.00005   0.00000   0.05613   0.03453
  36        7D+1        0.00793  -0.00002   0.00001   0.07713   0.03138
  37        7D-1        0.00000  -0.00006  -0.00967   0.00000   0.00000
  38        7D+2        0.01777  -0.00005   0.00001   0.02231   0.00494
  39        7D-2       -0.00001   0.00037   0.07157  -0.00000  -0.00001
  40        8D 0       -0.00420   0.00001   0.00000  -0.00602   0.00948
  41        8D+1        0.00140  -0.00000   0.00000  -0.00292  -0.00235
  42        8D-1        0.00000  -0.00020  -0.00132   0.00000   0.00000
  43        8D+2       -0.00602   0.00001  -0.00000   0.01649  -0.00495
  44        8D-2       -0.00000  -0.00002   0.00217   0.00000  -0.00000
  45 3   O  1S         -0.14078  -0.00024  -0.17343   0.00219   0.06497
  46        2S          0.29605   0.00103   0.36311  -0.00646  -0.13667
  47        3S          0.29821  -0.00230   0.38997   0.00023  -0.14190
  48        4PX        -0.00157   0.00009  -0.00185   0.00297  -0.00072
  49        4PY         0.05966   0.00015   0.06361  -0.00157  -0.02146
  50        4PZ         0.00017   0.00004   0.00104  -0.00329   0.00140
  51        5PX        -0.00316   0.00003  -0.00039  -0.00124  -0.00190
  52        5PY         0.02869  -0.00075   0.04362   0.00038  -0.01855
  53        5PZ         0.00107  -0.00042   0.00080  -0.00134   0.00155
  54 4   O  1S         -0.14085   0.00099   0.17339   0.00217   0.06492
  55        2S          0.29620  -0.00261  -0.36304  -0.00643  -0.13657
  56        3S          0.29839   0.00071  -0.38990   0.00027  -0.14179
  57        4PX        -0.00158  -0.00008   0.00185   0.00297  -0.00072
  58        4PY        -0.05968   0.00047   0.06359   0.00156   0.02144
  59        4PZ         0.00016  -0.00004  -0.00104  -0.00329   0.00140
  60        5PX        -0.00316  -0.00001   0.00039  -0.00124  -0.00190
  61        5PY        -0.02871  -0.00059   0.04361  -0.00039   0.01853
  62        5PZ         0.00107   0.00041  -0.00080  -0.00134   0.00155
  63 5   O  1S         -0.06593   0.00015  -0.00004   0.05395  -0.00579
  64        2S          0.14124  -0.00033   0.00008  -0.11338   0.01383
  65        3S          0.13107  -0.00030   0.00008  -0.11167  -0.00112
  66        4PX         0.00549  -0.00002   0.00000   0.00045  -0.00196
  67        4PY         0.00001   0.00257   0.00388   0.00000  -0.00000
  68        4PZ        -0.03048   0.00007  -0.00002   0.02105  -0.00247
  69        5PX        -0.00190   0.00000  -0.00000  -0.00139  -0.00094
  70        5PY         0.00000   0.00111   0.00155  -0.00000   0.00000
  71        5PZ        -0.01004   0.00002  -0.00001   0.00868  -0.00082
  72 6   O  1S         -0.05485   0.00012  -0.00003   0.08085  -0.20864
  73        2S          0.11606  -0.00025   0.00007  -0.16847   0.43808
  74        3S          0.11246  -0.00025   0.00007  -0.17802   0.45633
  75        4PX         0.00312  -0.00001   0.00000  -0.00035   0.00027
  76        4PY         0.00001   0.00229   0.00334  -0.00000   0.00000
  77        4PZ         0.02547  -0.00006   0.00001  -0.03029   0.07340
  78        5PX         0.00210  -0.00001   0.00000  -0.00333  -0.00087
  79        5PY         0.00000   0.00101   0.00146  -0.00000   0.00000
  80        5PZ         0.00897  -0.00002   0.00001  -0.01695   0.05010
  81 7   O  1S         -0.04988   0.00014  -0.00004  -0.22368  -0.08087
  82        2S          0.10975  -0.00031   0.00008   0.48722   0.17678
  83        3S          0.09854  -0.00028   0.00007   0.46613   0.16749
  84        4PX        -0.00943   0.00003  -0.00001  -0.04575  -0.01699
  85        4PY        -0.00000  -0.00002   0.00272  -0.00000  -0.00000
  86        4PZ        -0.01908   0.00005  -0.00001  -0.06326  -0.02073
  87        5PX        -0.00333   0.00001  -0.00000  -0.01963  -0.00569
  88        5PY        -0.00000   0.00017   0.00177  -0.00000  -0.00000
  89        5PZ        -0.00126   0.00001  -0.00000  -0.02658  -0.01221
  90 8   Ti 1S         -0.00745   0.00006   0.00001  -0.02387   0.03168
  91        2S         -0.00528  -0.00005  -0.00002   0.02912  -0.05021
  92        3S         -0.09736   0.00031  -0.00002  -0.05505   0.00164
  93        4PX        -0.10235   0.00031  -0.00004   0.07656  -0.11516
  94        4PY         0.00048   0.16725  -0.00190   0.00000  -0.00000
  95        4PZ        -0.00887   0.00002  -0.00000  -0.00723   0.07785
  96        5PX        -0.07193   0.00023  -0.00001  -0.04390   0.01532
  97        5PY        -0.00003  -0.00973   0.01149  -0.00000   0.00000
  98        5PZ        -0.00342   0.00001  -0.00000   0.00112  -0.00758
  99        6PX         0.00494  -0.00001   0.00000   0.00579  -0.00351
 100        6PY        -0.00002  -0.00614  -0.00054  -0.00000   0.00000
 101        6PZ         0.00155  -0.00000   0.00000  -0.00167   0.00265
 102        7D 0        0.01562  -0.00006   0.00000  -0.00806   0.00922
 103        7D+1        0.00347  -0.00001   0.00000   0.00453  -0.04333
 104        7D-1        0.00001   0.00139   0.00001  -0.00000   0.00000
 105        7D+2        0.02910  -0.00009   0.00001  -0.01950   0.02942
 106        7D-2        0.00017   0.05904  -0.00010   0.00000  -0.00000
 107        8D 0        0.01010  -0.00003   0.00000  -0.00164   0.00278
 108        8D+1       -0.00220   0.00001  -0.00000   0.00050   0.00070
 109        8D-1       -0.00000  -0.00023   0.00019   0.00000  -0.00000
 110        8D+2       -0.01602   0.00006   0.00000  -0.00814   0.00863
 111        8D-2       -0.00003  -0.00884   0.01234   0.00000  -0.00001
 112 9   O  1S          0.06140  -0.16631   0.00067  -0.01528   0.01800
 113        2S         -0.13019   0.35481  -0.00104   0.03355  -0.03854
 114        3S         -0.12528   0.33422  -0.00479   0.02810  -0.03574
 115        4PX         0.01334  -0.04199  -0.00021  -0.00375   0.00474
 116        4PY         0.02226  -0.05625   0.00035  -0.00758   0.01069
 117        4PZ        -0.00047   0.00079  -0.00001  -0.00007   0.00129
 118        5PX        -0.00423   0.00461   0.00281  -0.00010  -0.00197
 119        5PY        -0.00747   0.01386  -0.00132   0.00073  -0.00704
 120        5PZ        -0.00022   0.00032   0.00002  -0.00009   0.00118
 121 10  H  1S         -0.04439   0.11943  -0.00055   0.01181  -0.01494
 122        2S         -0.01056   0.02472   0.00194   0.00239  -0.00558
 123 11  O  1S          0.06235   0.16578  -0.00065  -0.01527   0.01799
 124        2S         -0.13221  -0.35368   0.00100   0.03353  -0.03853
 125        3S         -0.12719  -0.33314   0.00474   0.02808  -0.03572
 126        4PX         0.01350   0.04165   0.00021  -0.00372   0.00472
 127        4PY        -0.02264  -0.05622   0.00034   0.00759  -0.01070
 128        4PZ        -0.00050  -0.00087   0.00001  -0.00006   0.00128
 129        5PX        -0.00425  -0.00460  -0.00280  -0.00009  -0.00197
 130        5PY         0.00754   0.01381  -0.00131  -0.00073   0.00705
 131        5PZ        -0.00022  -0.00033  -0.00002  -0.00009   0.00118
 132 12  H  1S         -0.04507  -0.11905   0.00053   0.01180  -0.01494
 133        2S         -0.01069  -0.02464  -0.00194   0.00241  -0.00559
                          26        27        28        29        30
                           O         O         O         O         O
     Eigenvalues --    -0.96007  -0.53979  -0.53061  -0.46191  -0.45309
   1 1   Ti 1S          0.00536   0.00218  -0.00001   0.12825   0.06761
   2        2S         -0.00948   0.00468  -0.00000  -0.09289  -0.04656
   3        3S         -0.00708  -0.02395  -0.00008   0.09459   0.05730
   4        4PX         0.12635  -0.00497   0.00000  -0.00656   0.03212
   5        4PY        -0.00002  -0.00001  -0.00669   0.00000   0.00001
   6        4PZ        -0.11371   0.00043  -0.00000  -0.00085  -0.00872
   7        5PX         0.00764  -0.09610   0.00015  -0.03310   0.01395
   8        5PY         0.00000   0.00000   0.00361   0.00000  -0.00000
   9        5PZ         0.01354   0.00727  -0.00001   0.01228   0.00293
  10        6PX        -0.00322  -0.00743   0.00002   0.00033  -0.00598
  11        6PY        -0.00000  -0.00000  -0.01621   0.00000  -0.00000
  12        6PZ         0.00120   0.00121  -0.00000  -0.01304   0.00113
  13        7D 0        0.01627   0.00616   0.00001  -0.08942  -0.08523
  14        7D+1       -0.05823   0.00050  -0.00000  -0.14964   0.17824
  15        7D-1       -0.00000   0.00000   0.00010   0.00000   0.00001
  16        7D+2        0.01722  -0.00473  -0.00001   0.20390   0.14432
  17        7D-2        0.00001  -0.00003  -0.01996  -0.00003  -0.00005
  18        8D 0        0.00646   0.00018   0.00001  -0.05906  -0.05670
  19        8D+1        0.00450   0.00052   0.00000  -0.03841   0.04255
  20        8D-1        0.00000   0.00000   0.00091  -0.00000   0.00000
[...]
  56         V                -0.067374          3.990476
  57         V                -0.058164          4.023000
  58         V                -0.056565          3.749819
  59         V                -0.050110          3.766496
  60         V                -0.044883          3.901836
  61         V                -0.042659          4.184844
  62         V                -0.037489          4.191496
  63         V                -0.012403          0.593213
  64         V                -0.007448          0.948914
  65         V                 0.002681          0.396541
  66         V                 0.007234          0.241970
  67         V                 0.014080          0.300789
  68         V                 0.016440          0.282325
  69         V                 0.022218          0.197446
  70         V                 0.038334          0.235657
  71         V                 0.040403          0.216290
  72         V                 0.043108          0.182770
  73         V                 0.062478          0.493554
  74         V                 0.086251          0.709317
  75         V                 0.109592          0.750783
  76         V                 0.112848          0.803369
  77         V                 0.129407          0.784264
  78         V                 0.130697          0.877908
  79         V                 0.146179          1.146793
  80         V                 0.155010          1.090610
  81         V                 0.155363          0.982459
  82         V                 0.165242          1.113407
  83         V                 0.180181          0.853013
  84         V                 0.194560          1.173381
  85         V                 0.203893          1.037573
  86         V                 0.297502          1.457341
  87         V                 0.297664          1.434231
  88         V                 0.311897          1.355567
  89         V                 0.319037          1.635089
  90         V                 0.325288          1.363424
  91         V                 0.327472          1.400388
  92         V                 0.327486          1.427206
  93         V                 0.351098          1.456496
  94         V                 0.351973          1.334031
  95         V                 0.362003          1.321481
  96         V                 0.364567          1.285255
  97         V                 0.394988          2.124448
  98         V                 0.432295          1.594866
  99         V                 0.477136          1.544092
 100         V                 0.490938          1.651682
 101         V                 0.597429          1.972901
 102         V                 0.639415          2.751959
 103         V                 0.683604          2.885801
 104         V                 0.707921          2.809859
 105         V                 0.713325          2.794204
 106         V                 0.726510          2.852193
 107         V                 0.750344          2.828996
 108         V                 0.762977          2.969794
 109         V                 0.776549          2.864313
 110         V                 0.783587          3.236384
 111         V                 0.798688          2.712226
 112         V                 0.813679          2.756919
 113         V                 0.824652          2.920269
 114         V                 0.849807          3.013606
 115         V                 0.870611          2.887950
 116         V                 0.892624          2.952901
 117         V                 0.907038          2.860988
 118         V                 0.947605          3.215833
 119         V                 0.949860          3.380188
 120         V                 0.963717          2.994964
 121         V                 1.012665          2.921306
 122         V                 1.034442          2.917898
 123         V                 1.063005          3.304698
 124         V                 1.297965          3.770935
 125         V                 1.451014          3.964540
 126         V                 1.462780          4.176033
 127         V                 1.505900          4.298327
 128         V                 1.566676          4.093130
 129         V                 1.586050          4.144398
 130         V                 1.669271          4.154625
 131         V                 3.743327          2.405264
 132         V                11.049122          3.019006
 133         V                16.301931          4.158559
 Orbital energies and kinetic energies (beta):
                                 1                 2
   1         O               -19.208192         29.133076
   2         O               -19.197454         29.128699
   3         O               -19.197446         29.128696
   4         O               -19.187688         29.128272
   5         O               -19.183425         29.128469
   6         O               -19.166601         29.124884
   7         O               -19.166591         29.124899
   8         O                -2.515941          1.341408
   9         O                -2.506171          1.342163
  10         O                -2.495531          1.346315
  11         O                -1.649901          2.319305
  12         O                -1.641741          2.345128
  13         O                -1.631484          2.383341
  14         O                -1.630255          2.380956
  15         O                -1.623502          2.389390
  16         O                -1.623127          2.381688
  17         O                -1.617214          2.379890
  18         O                -1.616951          2.399671
  19         O                -1.611691          2.389943
  20         O                -0.992454          2.784527
  21         O                -0.985891          2.832912
  22         O                -0.974377          2.922105
  23         O                -0.959427          3.085214
  24         O                -0.953083          3.066756
  25         O                -0.946551          3.075851
  26         O                -0.932544          3.169221
  27         O                -0.539205          2.176173
  28         O                -0.530055          2.315016
  29         O                -0.447461          2.344637
  30         O                -0.442309          2.605085
  31         O                -0.435052          2.557965
  32         O                -0.425580          2.447031
  33         O                -0.414311          2.336877
  34         O                -0.404775          2.304031
  35         O                -0.403949          2.338486
  36         O                -0.402054          2.196595
  37         O                -0.398759          2.415607
  38         O                -0.390140          2.429373
  39         O                -0.388543          2.246502
  40         O                -0.367065          2.448247
  41         O                -0.364656          2.231178
  42         O                -0.363447          2.261579
  43         O                -0.353553          2.400648
  44         O                -0.336144          2.364212
  45         O                -0.335112          2.413890
  46         O                -0.328129          2.409721
  47         V                -0.290382          2.410295
  48         V                -0.145583          3.780027
  49         V                -0.135828          3.744274
  50         V                -0.117186          3.721207
  51         V                -0.110499          3.796815
  52         V                -0.105765          3.853480
  53         V                -0.099721          3.444578
  54         V                -0.080953          3.928193
  55         V                -0.078057          4.129052
  56         V                -0.067685          3.992043
  57         V                -0.058599          4.037597
  58         V                -0.056213          3.725856
  59         V                -0.048995          3.803061
  60         V                -0.044066          3.820429
  61         V                -0.042783          4.155487
  62         V                -0.035179          4.101411
  63         V                -0.011490          0.505554
  64         V                -0.006145          1.097135
  65         V                 0.003037          0.408917
  66         V                 0.008748          0.284416
  67         V                 0.014752          0.291857
  68         V                 0.016794          0.281230
  69         V                 0.022978          0.203459
  70         V                 0.038597          0.233435
  71         V                 0.040551          0.213818
  72         V                 0.043544          0.188509
  73         V                 0.063896          0.522240
  74         V                 0.086803          0.712881
  75         V                 0.110442          0.756868
  76         V                 0.114987          0.806012
  77         V                 0.131249          0.877443
  78         V                 0.131391          0.810175
  79         V                 0.147707          1.189690
  80         V                 0.155430          1.093417
  81         V                 0.156344          0.944375
  82         V                 0.166099          1.108708
  83         V                 0.181662          0.861541
  84         V                 0.194843          1.170782
  85         V                 0.204855          1.040254
  86         V                 0.298290          1.456853
  87         V                 0.299773          1.430191
  88         V                 0.313227          1.348137
  89         V                 0.320769          1.616219
  90         V                 0.325734          1.360087
  91         V                 0.328002          1.390970
  92         V                 0.329037          1.435031
  93         V                 0.351069          1.454719
  94         V                 0.352371          1.333564
  95         V                 0.362479          1.321280
  96         V                 0.364902          1.272138
  97         V                 0.397742          2.119776
  98         V                 0.433761          1.590096
  99         V                 0.479939          1.548415
 100         V                 0.491579          1.652749
 101         V                 0.601024          2.002757
 102         V                 0.643196          2.778087
 103         V                 0.693326          2.940689
 104         V                 0.712697          2.831004
 105         V                 0.718470          2.825478
 106         V                 0.729708          2.867962
 107         V                 0.754214          2.839557
 108         V                 0.773946          3.018377
 109         V                 0.778907          2.874638
 110         V                 0.789526          3.278966
 111         V                 0.814591          2.912799
 112         V                 0.819686          2.789070
 113         V                 0.835930          2.855641
 114         V                 0.852519          3.028582
 115         V                 0.872432          2.891260
 116         V                 0.900838          2.996275
 117         V                 0.912628          2.887973
 118         V                 0.949517          3.176246
 119         V                 0.950592          3.376229
 120         V                 0.967293          3.050028
 121         V                 1.017072          2.937486
 122         V                 1.035234          2.924135
 123         V                 1.065472          3.315241
 124         V                 1.313656          3.787930
 125         V                 1.456460          3.978520
 126         V                 1.467376          4.166669
 127         V                 1.511013          4.310797
 128         V                 1.570313          4.118500
 129         V                 1.591466          4.159489
 130         V                 1.676523          4.171708
 131         V                 3.747261          2.409680
 132         V                11.055717          3.019521
 133         V                16.307493          4.158555
 Total kinetic energy from orbitals= 5.977666968924D+02
                          Isotropic Fermi Contact Couplings
        Atom                 a.u.       MegaHertz       Gauss      10(-4) cm-1
     1  Ti(47)             0.00000      -0.00015      -0.00005      -0.00005
     2  Ti(47)             0.00000      -0.00017      -0.00006      -0.00006
     3  O(17)              0.04222     -25.59495      -9.13291      -8.53756
     4  O(17)              0.04224     -25.60283      -9.13572      -8.54018
     5  O(17)              0.04306     -26.10103      -9.31350      -8.70637
     6  O(17)              0.04556     -27.61911      -9.85518      -9.21274
     7  O(17)              0.09385     -56.89156     -20.30032     -18.97698
     8  Ti(47)             0.00000      -0.00011      -0.00004      -0.00004
     9  O(17)              0.00814      -4.93468      -1.76082      -1.64603
    10  H(1)              -0.00043      -1.92022      -0.68518      -0.64052
    11  O(17)              0.00814      -4.93369      -1.76046      -1.64570
    12  H(1)              -0.00043      -1.92072      -0.68536      -0.64068
 --------------------------------------------------------
       Center         ----  Spin Dipole Couplings  ----
                      3XX-RR        3YY-RR        3ZZ-RR
 --------------------------------------------------------
     1   Atom        0.003770      0.014672     -0.018442
     2   Atom       -0.023984      0.054944     -0.030960
     3   Atom       -0.314389     -0.287115      0.601504
     4   Atom       -0.314521     -0.287350      0.601871
     5   Atom       -0.257926     -0.363541      0.621468
     6   Atom       -0.296273     -0.305115      0.601388
     7   Atom        0.014387     -0.835302      0.820915
     8   Atom       -0.000587      0.010370     -0.009783
     9   Atom       -0.054496     -0.059506      0.114002
    10   Atom       -0.000166      0.002302     -0.002135
    11   Atom       -0.054472     -0.059503      0.113974
    12   Atom       -0.000185      0.002320     -0.002136
 --------------------------------------------------------
                        XY            XZ            YZ
 --------------------------------------------------------
     1   Atom       -0.000007      0.004599      0.000004
     2   Atom        0.000007     -0.010430     -0.000006
     3   Atom       -0.049286      0.217828     -0.250852
     4   Atom        0.049241      0.217869      0.250727
     5   Atom        0.000018     -0.308735     -0.000061
     6   Atom       -0.000009      0.074484     -0.000122
     7   Atom       -0.000120     -1.214295      0.000170
     8   Atom       -0.000001     -0.000431     -0.000003
     9   Atom        0.001283      0.001601     -0.003665
    10   Atom        0.005121      0.000172      0.000093
    11   Atom       -0.001283      0.001604      0.003572
    12   Atom       -0.005113      0.000169     -0.000090
 --------------------------------------------------------


 ---------------------------------------------------------------------------------
              Anisotropic Spin Dipole Couplings in Principal Axis System
 ---------------------------------------------------------------------------------

       Atom             a.u.   MegaHertz   Gauss  10(-4) cm-1        Axes

              Baa    -0.0194     0.583     0.208     0.195 -0.1951 -0.0002  0.9808
     1 Ti(47) Bbb     0.0047    -0.141    -0.050    -0.047  0.9808  0.0006  0.1951
              Bcc     0.0147    -0.442    -0.158    -0.147 -0.0006  1.0000  0.0000
 
              Baa    -0.0385     1.159     0.414     0.387  0.5843  0.0000  0.8115
     2 Ti(47) Bbb    -0.0165     0.496     0.177     0.166  0.8115 -0.0001 -0.5843
              Bcc     0.0549    -1.655    -0.591    -0.552  0.0001  1.0000 -0.0001
 
              Baa    -0.3668    26.545     9.472     8.854  0.8583 -0.4157 -0.3008
     3 O(17)  Bbb    -0.3489    25.249     9.010     8.422  0.4673  0.8753  0.1239
              Bcc     0.7158   -51.794   -18.481   -17.277  0.2118 -0.2469  0.9456
 
              Baa    -0.3670    26.554     9.475     8.857  0.8583  0.4159 -0.3006
     4 O(17)  Bbb    -0.3491    25.259     9.013     8.425 -0.4674  0.8753 -0.1237
              Bcc     0.7161   -51.813   -18.488   -17.283  0.2117  0.2467  0.9457
 
              Baa    -0.3635    26.306     9.386     8.775  0.0001  1.0000  0.0001
     5 O(17)  Bbb    -0.3555    25.723     9.179     8.580  0.9535 -0.0002  0.3013
              Bcc     0.7190   -52.029   -18.565   -17.355 -0.3013 -0.0001  0.9535
 
              Baa    -0.3051    22.078     7.878     7.364 -0.0004  1.0000  0.0002
     6 O(17)  Bbb    -0.3024    21.882     7.808     7.299  0.9966  0.0004 -0.0821
              Bcc     0.6075   -43.960   -15.686   -14.664  0.0821 -0.0001  0.9966
 
              Baa    -0.8619    62.363    22.253    20.802  0.8109 -0.0001  0.5852
     7 O(17)  Bbb    -0.8353    60.442    21.567    20.161  0.0001  1.0000 -0.0000
              Bcc     1.6972  -122.805   -43.820   -40.963 -0.5852  0.0001  0.8109
 
              Baa    -0.0098     0.295     0.105     0.099  0.0467  0.0001  0.9989
     8 Ti(47) Bbb    -0.0006     0.017     0.006     0.006  0.9989  0.0001 -0.0467
              Bcc     0.0104    -0.312    -0.111    -0.104 -0.0001  1.0000 -0.0001
 
              Baa    -0.0599     4.335     1.547     1.446 -0.2371  0.9712  0.0227
     9 O(17)  Bbb    -0.0542     3.921     1.399     1.308  0.9714  0.2373 -0.0041
              Bcc     0.1141    -8.256    -2.946    -2.754  0.0093 -0.0210  0.9997
 
              Baa    -0.0042    -2.243    -0.800    -0.748  0.7854 -0.6178 -0.0378
    10 H(1)   Bbb    -0.0021    -1.140    -0.407    -0.380  0.0166 -0.0400  0.9991
              Bcc     0.0063     3.382     1.207     1.128  0.6187  0.7853  0.0212
 
              Baa    -0.0599     4.334     1.546     1.446  0.2363  0.9714 -0.0221
    11 O(17)  Bbb    -0.0542     3.919     1.399     1.307  0.9716 -0.2364 -0.0042
              Bcc     0.1141    -8.253    -2.945    -2.753  0.0094  0.0205  0.9997
 
              Baa    -0.0042    -2.241    -0.800    -0.747  0.7866  0.6163 -0.0377
    12 H(1)   Bbb    -0.0021    -1.140    -0.407    -0.380  0.0169  0.0396  0.9991
              Bcc     0.0063     3.381     1.206     1.128 -0.6173  0.7865 -0.0207
 

 ---------------------------------------------------------------------------------


 Test job not archived.
 1\1\GINC-POP-OS\SP\UB3LYP\LANL2DZ\H2O7Ti3(1+,2)\RHEINHEIMER\07-Jun-202
 1\0\\#t B3LYP/LANL2DZ # SCRF=(Solvent=Ethanol) # Gfinput IOP(6/7=3) Po
 p=hirshfeld Density Test # Units(Ang,Deg)\\3-tio2.pdb\\1,2\Ti,0,0.3241
 ,-0.00001,0.0514\Ti,0,3.06784,-0.00001,-0.37437\O,0,1.6575,-1.23235,-0
 .15865\O,0,1.65749,1.23234,-0.15862\O,0,-1.10839,0.00003,1.27492\O,0,-
 1.03497,-0.00001,-1.18611\O,0,3.93824,0.00001,1.02867\Ti,0,-2.45178,0.
 00001,0.02778\O,0,-3.36066,-1.53041,0.00496\H,0,-3.89599,-2.3362,0.007
 02\O,0,-3.36086,1.53028,0.0048\H,0,-3.89444,2.33722,0.00749\\Version=E
 S64L-G16RevA.03\State=2-A\HF=-702.4277063\S2=0.78612\S2-1=0.\S2A=0.750
 968\RMSD=5.507e-09\Dipole=2.1841359,0.0013629,-2.0122675\Quadrupole=29
 .4408884,-11.8519367,-17.5889517,-0.0017662,-15.9587743,0.0027675\PG=C
 01 [X(H2O7Ti3)]\\@


 Democracy is the recurrent suspicion that more than half of the people
 are right more than half of the time.
 -- E. B. White
 Job cpu time:       0 days  0 hours  9 minutes 17.1 seconds.
 Elapsed time:       0 days  0 hours  1 minutes 19.0 seconds.
 File lengths (MBytes):  RWF=     58 Int=      0 D2E=      0 Chk=      3 Scr=      1
 Normal termination of Gaussian 16 at Mon Jun  7 11:56:53 2021.
