 Entering Gaussian System, Link 0=g16
 Input=e-3-tio2-p_anion_scf_g09.com
 Output=e-3-tio2-p_anion_scf_g09.log
 Initial command:
 /home/rheinheimer/Apps//g16/l1.exe "/home/rheinheimer/Apps/scrgauss/Gau-945671.inp" -scrdir="/home/rheinheimer/Apps/scrgauss/"
 Entering Link 1 = /home/rheinheimer/Apps//g16/l1.exe PID=    945673.
  
 Copyright (c) 1988,1990,1992,1993,1995,1998,2003,2009,2016,
            Gaussian, Inc.  All Rights Reserved.
  
 This is part of the Gaussian(R) 16 program.  It is based on
 the Gaussian(R) 09 system (copyright 2009, Gaussian, Inc.),
 the Gaussian(R) 03 system (copyright 2003, Gaussian, Inc.),
 the Gaussian(R) 98 system (copyright 1998, Gaussian, Inc.),
 the Gaussian(R) 94 system (copyright 1995, Gaussian, Inc.),
 the Gaussian 92(TM) system (copyright 1992, Gaussian, Inc.),
 the Gaussian 90(TM) system (copyright 1990, Gaussian, Inc.),
 the Gaussian 88(TM) system (copyright 1988, Gaussian, Inc.),
 the Gaussian 86(TM) system (copyright 1986, Carnegie Mellon
 University), and the Gaussian 82(TM) system (copyright 1983,
 Carnegie Mellon University). Gaussian is a federally registered
 trademark of Gaussian, Inc.
  
 This software contains proprietary and confidential information,
 including trade secrets, belonging to Gaussian, Inc.
  
 This software is provided under written license and may be
 used, copied, transmitted, or stored only in accord with that
 written license.
  
 The following legend is applicable only to US Government
 contracts under FAR:
  
                    RESTRICTED RIGHTS LEGEND
  
 Use, reproduction and disclosure by the US Government is
 subject to restrictions as set forth in subparagraphs (a)
 and (c) of the Commercial Computer Software - Restricted
 Rights clause in FAR 52.227-19.
  
 Gaussian, Inc.
 340 Quinnipiac St., Bldg. 40, Wallingford CT 06492
  
  
 ---------------------------------------------------------------
 Warning -- This program may not be used in any manner that
 competes with the business of Gaussian, Inc. or will provide
 assistance to any competitor of Gaussian, Inc.  The licensee
 of this program is prohibited from giving any competitor of
 Gaussian, Inc. access to this program.  By using this program,
 the user acknowledges that Gaussian, Inc. is engaged in the
 business of creating and licensing software in the field of
 computational chemistry and represents and warrants to the
 licensee that it is not a competitor of Gaussian, Inc. and that
 it will not use this program in any manner prohibited above.
 ---------------------------------------------------------------
  

 Cite this work as:
 Gaussian 16, Revision A.03,
 M. J. Frisch, G. W. Trucks, H. B. Schlegel, G. E. Scuseria, 
 M. A. Robb, J. R. Cheeseman, G. Scalmani, V. Barone, 
 G. A. Petersson, H. Nakatsuji, X. Li, M. Caricato, A. V. Marenich, 
 J. Bloino, B. G. Janesko, R. Gomperts, B. Mennucci, H. P. Hratchian, 
 J. V. Ortiz, A. F. Izmaylov, J. L. Sonnenberg, D. Williams-Young, 
 F. Ding, F. Lipparini, F. Egidi, J. Goings, B. Peng, A. Petrone, 
 T. Henderson, D. Ranasinghe, V. G. Zakrzewski, J. Gao, N. Rega, 
 G. Zheng, W. Liang, M. Hada, M. Ehara, K. Toyota, R. Fukuda, 
 J. Hasegawa, M. Ishida, T. Nakajima, Y. Honda, O. Kitao, H. Nakai, 
 T. Vreven, K. Throssell, J. A. Montgomery, Jr., J. E. Peralta, 
 F. Ogliaro, M. J. Bearpark, J. J. Heyd, E. N. Brothers, K. N. Kudin, 
 V. N. Staroverov, T. A. Keith, R. Kobayashi, J. Normand, 
 K. Raghavachari, A. P. Rendell, J. C. Burant, S. S. Iyengar, 
 J. Tomasi, M. Cossi, J. M. Millam, M. Klene, C. Adamo, R. Cammi, 
 J. W. Ochterski, R. L. Martin, K. Morokuma, O. Farkas, 
 J. B. Foresman, and D. J. Fox, Gaussian, Inc., Wallingford CT, 2016.
 
 ******************************************
 Gaussian 16:  ES64L-G16RevA.03 25-Dec-2016
                 7-Jun-2021 
 ******************************************
 %nproc=8
 Will use up to    8 processors via shared memory.
 %Mem=4GB
 ----------------------------------------------------------------------
 #t B3LYP/LANL2DZ # SCRF=(Solvent=Ethanol) # Gfinput IOP(6/7=3) Pop=hir
 shfeld Density Test # Units(Ang,Deg)
 ----------------------------------------------------------------------
 ----------
 3-tio2.pdb
 ----------
 Symbolic Z-matrix:
 Charge = -1 Multiplicity = 2
 Ti                    0.3241   -0.00001   0.0514 
 Ti                    3.06784  -0.00001  -0.37437 
 O                     1.6575   -1.23235  -0.15865 
 O                     1.65749   1.23234  -0.15862 
 O                    -1.10839   0.00003   1.27492 
 O                    -1.03497  -0.00001  -1.18611 
 O                     3.93824   0.00001   1.02867 
 Ti                   -2.45178   0.00001   0.02778 
 O                    -3.36066  -1.53041   0.00496 
 H                    -3.89599  -2.3362    0.00702 
 O                    -3.36086   1.53028   0.0048 
 H                    -3.89444   2.33722   0.00749 
 
                    Distance matrix (angstroms):
                    1          2          3          4          5
     1  Ti   0.000000
     2  Ti   2.776579   0.000000
     3  O    1.827769   1.885273   0.000000
     4  O    1.827765   1.885291   2.464690   0.000000
     5  O    1.883887   4.490106   3.350228   3.350182   0.000000
     6  O    1.838070   4.182340   3.134283   3.134288   2.462125
     7  O    3.743937   1.651096   2.851353   2.851336   5.052634
     8  Ti   2.775980   5.534251   4.294141   4.294122   1.833045
     9  O    3.990205   6.619035   5.029666   5.730740   3.004624
    10  H    4.823786   7.355146   5.664555   6.603261   3.851786
    11  O    3.990350   6.619195   5.730862   5.029842   3.004745
    12  H    4.822930   7.354033   6.602535   5.663239   3.851092
                    6          7          8          9         10
     6  O    0.000000
     7  O    5.444086   0.000000
     8  Ti   1.865712   6.467931   0.000000
     9  O    3.028136   7.527557   1.780104   0.000000
    10  H    3.881595   8.238738   2.746644   0.967409   0.000000
    11  O    3.028171   7.527742   1.780079   3.060690   3.903337
    12  H    3.881223   8.237490   2.746676   3.904291   4.673420
                   11         12
    11  O    0.000000
    12  H    0.967402   0.000000
 Framework group  C1[X(H2O7Ti3)]
 Deg. of freedom    30
                         Standard orientation:                         
 ---------------------------------------------------------------------
 Center     Atomic      Atomic             Coordinates (Angstroms)
 Number     Number       Type             X           Y           Z
 ---------------------------------------------------------------------
      1         22           0        0.324101   -0.000009    0.051399
      2         22           0        3.067841   -0.000006   -0.374371
      3          8           0        1.657502   -1.232348   -0.158651
      4          8           0        1.657490    1.232342   -0.158621
      5          8           0       -1.108389    0.000029    1.274919
      6          8           0       -1.034969   -0.000010   -1.186111
      7          8           0        3.938241    0.000015    1.028669
      8         22           0       -2.451779    0.000008    0.027779
      9          8           0       -3.360658   -1.530413    0.004959
     10          1           0       -3.895987   -2.336203    0.007019
     11          8           0       -3.360861    1.530277    0.004799
     12          1           0       -3.894442    2.337217    0.007489
 ---------------------------------------------------------------------
 Rotational constants (GHZ):           2.4343629           0.3195007           0.3075599
 AO basis set in the form of general basis input (Overlap normalization):
      1 0
 S   3 1.00       0.000000000000
      0.1098000000D+01 -0.1023676994D+00
      0.4178000000D+00 -0.3753172148D+00
      0.8720000000D-01  0.1215423149D+01
 S   3 1.00       0.000000000000
      0.4372000000D+01 -0.3637098367D+00
      0.1098000000D+01  0.8184533826D+00
      0.4178000000D+00  0.4184526423D+00
 S   1 1.00       0.000000000000
      0.3140000000D-01  0.1000000000D+01
 P   3 1.00       0.000000000000
      0.1252000000D+02 -0.4569080054D-01
      0.1491000000D+01  0.6203313074D+00
      0.4859000000D+00  0.4765329057D+00
 P   1 1.00       0.000000000000
      0.5300000000D-01  0.1000000000D+01
 P   1 1.00       0.000000000000
      0.1600000000D-01  0.1000000000D+01
 D   4 1.00       0.000000000000
      0.2021000000D+02  0.3416819898D-01
      0.5495000000D+01  0.1710005949D+00
      0.1699000000D+01  0.4405848869D+00
      0.4840000000D+00  0.6114245818D+00
 D   1 1.00       0.000000000000
      0.1157000000D+00  0.1000000000D+01
 ****
      2 0
 S   3 1.00       0.000000000000
      0.1098000000D+01 -0.1023676994D+00
      0.4178000000D+00 -0.3753172148D+00
      0.8720000000D-01  0.1215423149D+01
 S   3 1.00       0.000000000000
      0.4372000000D+01 -0.3637098367D+00
      0.1098000000D+01  0.8184533826D+00
      0.4178000000D+00  0.4184526423D+00
 S   1 1.00       0.000000000000
      0.3140000000D-01  0.1000000000D+01
 P   3 1.00       0.000000000000
      0.1252000000D+02 -0.4569080054D-01
      0.1491000000D+01  0.6203313074D+00
      0.4859000000D+00  0.4765329057D+00
 P   1 1.00       0.000000000000
      0.5300000000D-01  0.1000000000D+01
 P   1 1.00       0.000000000000
      0.1600000000D-01  0.1000000000D+01
 D   4 1.00       0.000000000000
      0.2021000000D+02  0.3416819898D-01
      0.5495000000D+01  0.1710005949D+00
      0.1699000000D+01  0.4405848869D+00
      0.4840000000D+00  0.6114245818D+00
 D   1 1.00       0.000000000000
      0.1157000000D+00  0.1000000000D+01
 ****
      3 0
 S   7 1.00       0.000000000000
      0.7817000000D+04  0.1176000331D-02
      0.1176000000D+04  0.8968002523D-02
      0.2732000000D+03  0.4286801206D-01
      0.8117000000D+02  0.1439300405D+00
      0.2718000000D+02  0.3556301000D+00
      0.9532000000D+01  0.4612481297D+00
      0.3414000000D+01  0.1402060394D+00
 S   2 1.00       0.000000000000
      0.9532000000D+01 -0.1541530739D+00
      0.9398000000D+00  0.1056914507D+01
 S   1 1.00       0.000000000000
      0.2846000000D+00  0.1000000000D+01
 P   4 1.00       0.000000000000
      0.3518000000D+02  0.1958000050D-01
      0.7904000000D+01  0.1242000032D+00
      0.2305000000D+01  0.3947140101D+00
      0.7171000000D+00  0.6273760161D+00
 P   1 1.00       0.000000000000
      0.2137000000D+00  0.1000000000D+01
 ****
      4 0
 S   7 1.00       0.000000000000
      0.7817000000D+04  0.1176000331D-02
      0.1176000000D+04  0.8968002523D-02
      0.2732000000D+03  0.4286801206D-01
      0.8117000000D+02  0.1439300405D+00
      0.2718000000D+02  0.3556301000D+00
      0.9532000000D+01  0.4612481297D+00
      0.3414000000D+01  0.1402060394D+00
 S   2 1.00       0.000000000000
      0.9532000000D+01 -0.1541530739D+00
      0.9398000000D+00  0.1056914507D+01
 S   1 1.00       0.000000000000
      0.2846000000D+00  0.1000000000D+01
 P   4 1.00       0.000000000000
      0.3518000000D+02  0.1958000050D-01
      0.7904000000D+01  0.1242000032D+00
      0.2305000000D+01  0.3947140101D+00
      0.7171000000D+00  0.6273760161D+00
 P   1 1.00       0.000000000000
      0.2137000000D+00  0.1000000000D+01
 ****
      5 0
 S   7 1.00       0.000000000000
      0.7817000000D+04  0.1176000331D-02
      0.1176000000D+04  0.8968002523D-02
      0.2732000000D+03  0.4286801206D-01
      0.8117000000D+02  0.1439300405D+00
      0.2718000000D+02  0.3556301000D+00
      0.9532000000D+01  0.4612481297D+00
      0.3414000000D+01  0.1402060394D+00
 S   2 1.00       0.000000000000
      0.9532000000D+01 -0.1541530739D+00
      0.9398000000D+00  0.1056914507D+01
 S   1 1.00       0.000000000000
      0.2846000000D+00  0.1000000000D+01
 P   4 1.00       0.000000000000
      0.3518000000D+02  0.1958000050D-01
      0.7904000000D+01  0.1242000032D+00
      0.2305000000D+01  0.3947140101D+00
      0.7171000000D+00  0.6273760161D+00
 P   1 1.00       0.000000000000
      0.2137000000D+00  0.1000000000D+01
 ****
      6 0
 S   7 1.00       0.000000000000
      0.7817000000D+04  0.1176000331D-02
      0.1176000000D+04  0.8968002523D-02
      0.2732000000D+03  0.4286801206D-01
      0.8117000000D+02  0.1439300405D+00
      0.2718000000D+02  0.3556301000D+00
      0.9532000000D+01  0.4612481297D+00
      0.3414000000D+01  0.1402060394D+00
 S   2 1.00       0.000000000000
      0.9532000000D+01 -0.1541530739D+00
      0.9398000000D+00  0.1056914507D+01
 S   1 1.00       0.000000000000
      0.2846000000D+00  0.1000000000D+01
 P   4 1.00       0.000000000000
      0.3518000000D+02  0.1958000050D-01
      0.7904000000D+01  0.1242000032D+00
      0.2305000000D+01  0.3947140101D+00
      0.7171000000D+00  0.6273760161D+00
 P   1 1.00       0.000000000000
      0.2137000000D+00  0.1000000000D+01
 ****
      7 0
 S   7 1.00       0.000000000000
      0.7817000000D+04  0.1176000331D-02
      0.1176000000D+04  0.8968002523D-02
      0.2732000000D+03  0.4286801206D-01
      0.8117000000D+02  0.1439300405D+00
      0.2718000000D+02  0.3556301000D+00
      0.9532000000D+01  0.4612481297D+00
      0.3414000000D+01  0.1402060394D+00
 S   2 1.00       0.000000000000
      0.9532000000D+01 -0.1541530739D+00
      0.9398000000D+00  0.1056914507D+01
 S   1 1.00       0.000000000000
      0.2846000000D+00  0.1000000000D+01
 P   4 1.00       0.000000000000
      0.3518000000D+02  0.1958000050D-01
      0.7904000000D+01  0.1242000032D+00
      0.2305000000D+01  0.3947140101D+00
      0.7171000000D+00  0.6273760161D+00
 P   1 1.00       0.000000000000
      0.2137000000D+00  0.1000000000D+01
 ****
      8 0
 S   3 1.00       0.000000000000
      0.1098000000D+01 -0.1023676994D+00
      0.4178000000D+00 -0.3753172148D+00
      0.8720000000D-01  0.1215423149D+01
 S   3 1.00       0.000000000000
      0.4372000000D+01 -0.3637098367D+00
      0.1098000000D+01  0.8184533826D+00
      0.4178000000D+00  0.4184526423D+00
 S   1 1.00       0.000000000000
      0.3140000000D-01  0.1000000000D+01
 P   3 1.00       0.000000000000
      0.1252000000D+02 -0.4569080054D-01
      0.1491000000D+01  0.6203313074D+00
      0.4859000000D+00  0.4765329057D+00
 P   1 1.00       0.000000000000
      0.5300000000D-01  0.1000000000D+01
 P   1 1.00       0.000000000000
      0.1600000000D-01  0.1000000000D+01
 D   4 1.00       0.000000000000
      0.2021000000D+02  0.3416819898D-01
      0.5495000000D+01  0.1710005949D+00
      0.1699000000D+01  0.4405848869D+00
      0.4840000000D+00  0.6114245818D+00
 D   1 1.00       0.000000000000
      0.1157000000D+00  0.1000000000D+01
 ****
      9 0
 S   7 1.00       0.000000000000
      0.7817000000D+04  0.1176000331D-02
      0.1176000000D+04  0.8968002523D-02
      0.2732000000D+03  0.4286801206D-01
      0.8117000000D+02  0.1439300405D+00
      0.2718000000D+02  0.3556301000D+00
      0.9532000000D+01  0.4612481297D+00
      0.3414000000D+01  0.1402060394D+00
 S   2 1.00       0.000000000000
      0.9532000000D+01 -0.1541530739D+00
      0.9398000000D+00  0.1056914507D+01
 S   1 1.00       0.000000000000
      0.2846000000D+00  0.1000000000D+01
 P   4 1.00       0.000000000000
      0.3518000000D+02  0.1958000050D-01
      0.7904000000D+01  0.1242000032D+00
      0.2305000000D+01  0.3947140101D+00
      0.7171000000D+00  0.6273760161D+00
 P   1 1.00       0.000000000000
      0.2137000000D+00  0.1000000000D+01
 ****
     10 0
 S   3 1.00       0.000000000000
      0.1924060000D+02  0.3282807697D-01
      0.2899200000D+01  0.2312085421D+00
      0.6534000000D+00  0.8172399161D+00
 S   1 1.00       0.000000000000
      0.1776000000D+00  0.1000000000D+01
 ****
     11 0
 S   7 1.00       0.000000000000
      0.7817000000D+04  0.1176000331D-02
      0.1176000000D+04  0.8968002523D-02
      0.2732000000D+03  0.4286801206D-01
      0.8117000000D+02  0.1439300405D+00
      0.2718000000D+02  0.3556301000D+00
      0.9532000000D+01  0.4612481297D+00
      0.3414000000D+01  0.1402060394D+00
 S   2 1.00       0.000000000000
      0.9532000000D+01 -0.1541530739D+00
      0.9398000000D+00  0.1056914507D+01
 S   1 1.00       0.000000000000
      0.2846000000D+00  0.1000000000D+01
 P   4 1.00       0.000000000000
      0.3518000000D+02  0.1958000050D-01
      0.7904000000D+01  0.1242000032D+00
      0.2305000000D+01  0.3947140101D+00
      0.7171000000D+00  0.6273760161D+00
 P   1 1.00       0.000000000000
      0.2137000000D+00  0.1000000000D+01
 ****
     12 0
 S   3 1.00       0.000000000000
      0.1924060000D+02  0.3282807697D-01
      0.2899200000D+01  0.2312085421D+00
      0.6534000000D+00  0.8172399161D+00
 S   1 1.00       0.000000000000
      0.1776000000D+00  0.1000000000D+01
 ****

 Effective core potential in the form of general ECP input:
      1 0
 Ti1-ECP   2 10
 D component
  3
  1      265.3263909      -10.00000000    0.00000000
  2       47.7687815      -51.84278160    0.00000000
  2       11.8903334       -9.14291450    0.00000000
 S-D projection
  5
  0       81.4730696        3.00000000    0.00000000
  1       72.6496724       19.48255790    0.00000000
  2       31.8128213      207.33492790    0.00000000
  2        6.1664468      235.67445010    0.00000000
  2        5.8268347     -166.87843870    0.00000000
 P-D projection
  5
  0       50.2966943        5.00000000    0.00000000
  1       63.5089754        5.53488220    0.00000000
  2       26.0996084      177.84193840    0.00000000
  2        5.6022573      107.42071530    0.00000000
  2        5.2171069      -71.90659020    0.00000000
      2 0
 Ti2-ECP   2 10
 D component
  3
  1      265.3263909      -10.00000000    0.00000000
  2       47.7687815      -51.84278160    0.00000000
  2       11.8903334       -9.14291450    0.00000000
 S-D projection
  5
  0       81.4730696        3.00000000    0.00000000
  1       72.6496724       19.48255790    0.00000000
  2       31.8128213      207.33492790    0.00000000
  2        6.1664468      235.67445010    0.00000000
  2        5.8268347     -166.87843870    0.00000000
 P-D projection
  5
  0       50.2966943        5.00000000    0.00000000
  1       63.5089754        5.53488220    0.00000000
  2       26.0996084      177.84193840    0.00000000
  2        5.6022573      107.42071530    0.00000000
  2        5.2171069      -71.90659020    0.00000000
      8 0
 Ti8-ECP   2 10
 D component
  3
  1      265.3263909      -10.00000000    0.00000000
  2       47.7687815      -51.84278160    0.00000000
  2       11.8903334       -9.14291450    0.00000000
 S-D projection
  5
  0       81.4730696        3.00000000    0.00000000
  1       72.6496724       19.48255790    0.00000000
  2       31.8128213      207.33492790    0.00000000
  2        6.1664468      235.67445010    0.00000000
  2        5.8268347     -166.87843870    0.00000000
 P-D projection
  5
  0       50.2966943        5.00000000    0.00000000
  1       63.5089754        5.53488220    0.00000000
  2       26.0996084      177.84193840    0.00000000
  2        5.6022573      107.42071530    0.00000000
  2        5.2171069      -71.90659020    0.00000000
 
   133 basis functions,   339 primitive gaussians,   139 cartesian basis functions
    48 alpha electrons       47 beta electrons
       nuclear repulsion energy       709.3607093168 Hartrees.
 NAtoms=   12 NActive=   12 NUniq=   12 SFac= 1.00D+00 NAtFMM=   60 NAOKFM=F Big=F
 ------------------------------------------------------------------------------
 Polarizable Continuum Model (PCM)
 =================================
 Model                : PCM.
 Atomic radii         : UFF (Universal Force Field).
 Polarization charges : Total charges.
 Charge compensation  : None.
 Solution method      : On-the-fly selection.
 Cavity type          : Scaled VdW (van der Waals Surface) (Alpha=1.100).
 Cavity algorithm     : GePol (No added spheres)
                        Default sphere list used, NSphG=   12.
                        Lebedev-Laikov grids with approx.  5.0 points / Ang**2.
                        Smoothing algorithm: York/Karplus (Gamma=1.0000).
                        Polarization charges: spherical gaussians, with
                                              point-specific exponents (IZeta= 3).
                        Self-potential: point-specific (ISelfS= 7).
                        Self-field    : sphere-specific E.n sum rule (ISelfD= 2).
 Solvent              : Ethanol, Eps=  24.852000 Eps(inf)=   1.852593
 ------------------------------------------------------------------------------
 Spheres list:
 ISph  on   Nord     Re0    Alpha      Xe            Ye            Ze
    1  Ti      1    1.5875  1.100      0.324101     -0.000009      0.051399
    2  Ti      2    1.5875  1.100      3.067841     -0.000006     -0.374371
    3   O      3    1.7500  1.100      1.657502     -1.232348     -0.158651
    4   O      4    1.7500  1.100      1.657490      1.232342     -0.158621
    5   O      5    1.7500  1.100     -1.108389      0.000029      1.274919
    6   O      6    1.7500  1.100     -1.034969     -0.000010     -1.186111
    7   O      7    1.7500  1.100      3.938241      0.000015      1.028669
    8  Ti      8    1.5875  1.100     -2.451779      0.000008      0.027779
    9   O      9    1.7500  1.100     -3.360658     -1.530413      0.004959
   10   H     10    1.4430  1.100     -3.895987     -2.336203      0.007019
   11   O     11    1.7500  1.100     -3.360861      1.530277      0.004799
   12   H     12    1.4430  1.100     -3.894442      2.337217      0.007489
 ------------------------------------------------------------------------------
   1 Symmetry operations used in ECPInt.
 ECPInt:  NShTT=    2016 NPrTT=   13777 LenC2=    1945 LenP2D=    9110.
 LDataN:  DoStor=T MaxTD1= 4 Len=   56
 ExpMin= 1.60D-02 ExpMax= 7.82D+03 ExpMxC= 2.73D+02 IAcc=3 IRadAn=         5 AccDes= 0.00D+00
 Harris functional with IExCor=  402 and IRadAn=       5 diagonalized for initial guess.
 HarFok:  IExCor=  402 AccDes= 0.00D+00 IRadAn=         5 IDoV= 1 UseB2=F ITyADJ=14
 ICtDFT=  3500011 ScaDFX=  1.000000  1.000000  1.000000  1.000000
 FoFCou: FMM=F IPFlag=           0 FMFlag=      100000 FMFlg1=           0
         NFxFlg=           0 DoJE=T BraDBF=F KetDBF=T FulRan=T
         wScrn=  0.000000 ICntrl=       500 IOpCl=  0 I1Cent=   200000004 NGrid=           0
         NMat0=    1 NMatS0=      1 NMatT0=    0 NMatD0=    1 NMtDS0=    0 NMtDT0=    0
 Petite list used in FoFCou.
 Initial guess <Sx>= 0.0000 <Sy>= 0.0000 <Sz>= 0.5000 <S**2>= 0.7500 S= 0.5000
 Inv3:  Mode=1 IEnd=     7282092.
 Iteration    1 A*A^-1 deviation from unit magnitude is 2.78D-15 for    583.
 Iteration    1 A*A^-1 deviation from orthogonality  is 2.66D-15 for   1308     98.
 Iteration    1 A^-1*A deviation from unit magnitude is 2.55D-15 for    463.
 Iteration    1 A^-1*A deviation from orthogonality  is 1.74D-14 for   1006    952.
 EnCoef did   100 forward-backward iterations
 EnCoef did   100 forward-backward iterations
 EnCoef did     5 forward-backward iterations
 Error on total polarization charges =  0.02824
 SCF Done:  E(UB3LYP) =  -702.825360475     A.U. after   31 cycles
            NFock= 31  Conv=0.61D-08     -V/T= 2.1728
 <Sx>= 0.0000 <Sy>= 0.0000 <Sz>= 0.5000 <S**2>= 0.7621 S= 0.5060
 <L.S>=  0.00000000000    
 Annihilation of the first spin contaminant:
 S**2 before annihilation     0.7621,   after     0.7501

 **********************************************************************

            Population analysis using the SCF density.

 **********************************************************************

 Orbital symmetries:
 Alpha Orbitals:
       Occupied  (A) (A) (A) (A) (A) (A) (A) (A) (A) (A) (A) (A)
                 (A) (A) (A) (A) (A) (A) (A) (A) (A) (A) (A) (A)
                 (A) (A) (A) (A) (A) (A) (A) (A) (A) (A) (A) (A)
                 (A) (A) (A) (A) (A) (A) (A) (A) (A) (A) (A) (A)
       Virtual   (A) (A) (A) (A) (A) (A) (A) (A) (A) (A) (A) (A)
                 (A) (A) (A) (A) (A) (A) (A) (A) (A) (A) (A) (A)
                 (A) (A) (A) (A) (A) (A) (A) (A) (A) (A) (A) (A)
                 (A) (A) (A) (A) (A) (A) (A) (A) (A) (A) (A) (A)
                 (A) (A) (A) (A) (A) (A) (A) (A) (A) (A) (A) (A)
                 (A) (A) (A) (A) (A) (A) (A) (A) (A) (A) (A) (A)
                 (A) (A) (A) (A) (A) (A) (A) (A) (A) (A) (A) (A)
                 (A)
 Beta  Orbitals:
       Occupied  (A) (A) (A) (A) (A) (A) (A) (A) (A) (A) (A) (A)
                 (A) (A) (A) (A) (A) (A) (A) (A) (A) (A) (A) (A)
                 (A) (A) (A) (A) (A) (A) (A) (A) (A) (A) (A) (A)
                 (A) (A) (A) (A) (A) (A) (A) (A) (A) (A) (A)
       Virtual   (A) (A) (A) (A) (A) (A) (A) (A) (A) (A) (A) (A)
                 (A) (A) (A) (A) (A) (A) (A) (A) (A) (A) (A) (A)
                 (A) (A) (A) (A) (A) (A) (A) (A) (A) (A) (A) (A)
                 (A) (A) (A) (A) (A) (A) (A) (A) (A) (A) (A) (A)
                 (A) (A) (A) (A) (A) (A) (A) (A) (A) (A) (A) (A)
                 (A) (A) (A) (A) (A) (A) (A) (A) (A) (A) (A) (A)
                 (A) (A) (A) (A) (A) (A) (A) (A) (A) (A) (A) (A)
                 (A) (A)
 The electronic state is 2-A.
 Alpha  occ. eigenvalues --  -19.11573 -19.11572 -19.09114 -19.08866 -19.08499
 Alpha  occ. eigenvalues --  -19.08499 -19.07527  -2.41127  -2.38599  -2.37836
 Alpha  occ. eigenvalues --   -1.53959  -1.53778  -1.52829  -1.51964  -1.51415
 Alpha  occ. eigenvalues --   -1.50595  -1.50239  -1.50004  -1.49928  -0.94753
 Alpha  occ. eigenvalues --   -0.94137  -0.87994  -0.86420  -0.85755  -0.85714
 Alpha  occ. eigenvalues --   -0.82666  -0.49156  -0.48060  -0.36258  -0.34489
 Alpha  occ. eigenvalues --   -0.34132  -0.33718  -0.33244  -0.32869  -0.32583
 Alpha  occ. eigenvalues --   -0.32405  -0.32150  -0.31092  -0.30629  -0.30605
 Alpha  occ. eigenvalues --   -0.29243  -0.28717  -0.27816  -0.27572  -0.26694
 Alpha  occ. eigenvalues --   -0.25635  -0.24816  -0.10844
 Alpha virt. eigenvalues --   -0.05301  -0.02580  -0.02526  -0.01257  -0.00904
 Alpha virt. eigenvalues --   -0.00302  -0.00039   0.00466   0.01548   0.01900
 Alpha virt. eigenvalues --    0.02043   0.02252   0.02388   0.02521   0.03187
 Alpha virt. eigenvalues --    0.03302   0.03695   0.04133   0.04549   0.04764
 Alpha virt. eigenvalues --    0.05386   0.05463   0.06748   0.06932   0.08597
 Alpha virt. eigenvalues --    0.10879   0.13813   0.14033   0.15595   0.15655
 Alpha virt. eigenvalues --    0.17294   0.17935   0.18333   0.19250   0.20746
 Alpha virt. eigenvalues --    0.22037   0.23814   0.33169   0.34119   0.34821
 Alpha virt. eigenvalues --    0.35922   0.36589   0.36743   0.37057   0.38751
 Alpha virt. eigenvalues --    0.39003   0.40296   0.40394   0.45373   0.47363
 Alpha virt. eigenvalues --    0.52014   0.53421   0.64475   0.70695   0.74782
 Alpha virt. eigenvalues --    0.76613   0.77234   0.77472   0.81105   0.83487
 Alpha virt. eigenvalues --    0.83770   0.85782   0.87348   0.87431   0.89952
 Alpha virt. eigenvalues --    0.90946   0.91318   0.95273   0.97087   0.98650
 Alpha virt. eigenvalues --    0.99085   1.03459   1.06863   1.07865   1.12550
 Alpha virt. eigenvalues --    1.38400   1.51142   1.52402   1.57642   1.63313
 Alpha virt. eigenvalues --    1.65699   1.74147   3.79234  11.10973  16.36688
  Beta  occ. eigenvalues --  -19.11590 -19.11589 -19.09160 -19.08906 -19.08580
  Beta  occ. eigenvalues --  -19.08580 -19.07592  -2.40133  -2.37237  -2.35893
  Beta  occ. eigenvalues --   -1.53265  -1.53050  -1.51389  -1.51127  -1.50408
  Beta  occ. eigenvalues --   -1.48886  -1.48503  -1.47579  -1.46861  -0.94772
  Beta  occ. eigenvalues --   -0.94154  -0.88105  -0.86500  -0.85861  -0.85858
  Beta  occ. eigenvalues --   -0.82786  -0.49048  -0.48015  -0.35961  -0.34515
  Beta  occ. eigenvalues --   -0.34161  -0.33459  -0.33232  -0.32791  -0.32470
  Beta  occ. eigenvalues --   -0.32217  -0.31930  -0.31121  -0.30618  -0.30476
  Beta  occ. eigenvalues --   -0.29224  -0.28646  -0.27688  -0.27650  -0.26751
  Beta  occ. eigenvalues --   -0.25696  -0.24951
  Beta virt. eigenvalues --   -0.02682  -0.02201  -0.02146  -0.00918  -0.00617
  Beta virt. eigenvalues --   -0.00125   0.00136   0.00140   0.01363   0.01914
  Beta virt. eigenvalues --    0.02182   0.02498   0.02548   0.02637   0.03390
  Beta virt. eigenvalues --    0.03424   0.03849   0.04207   0.04446   0.04871
  Beta virt. eigenvalues --    0.05308   0.05657   0.06563   0.07427   0.07661
  Beta virt. eigenvalues --    0.08784   0.11011   0.13898   0.14235   0.15617
  Beta virt. eigenvalues --    0.15823   0.17464   0.18134   0.18385   0.19351
  Beta virt. eigenvalues --    0.20892   0.22085   0.24361   0.33770   0.34120
  Beta virt. eigenvalues --    0.35492   0.36064   0.36675   0.36768   0.37259
  Beta virt. eigenvalues --    0.39059   0.39475   0.40356   0.40666   0.45566
  Beta virt. eigenvalues --    0.47600   0.52438   0.53606   0.64659   0.70807
  Beta virt. eigenvalues --    0.74789   0.76692   0.77196   0.77465   0.81060
  Beta virt. eigenvalues --    0.83499   0.83754   0.85817   0.87313   0.87352
  Beta virt. eigenvalues --    0.89934   0.90957   0.91327   0.95333   0.97069
  Beta virt. eigenvalues --    0.98682   0.99110   1.03429   1.06850   1.07883
  Beta virt. eigenvalues --    1.12579   1.38345   1.51114   1.52381   1.57651
  Beta virt. eigenvalues --    1.63293   1.65722   1.74161   3.79021  11.10048
  Beta virt. eigenvalues --   16.35251
     Alpha Molecular Orbital Coefficients:
                           1         2         3         4         5
                           O         O         O         O         O
     Eigenvalues --   -19.11573 -19.11572 -19.09114 -19.08866 -19.08499
   1 1   Ti 1S         -0.00000  -0.00000   0.00077   0.00116   0.00001
   2        2S          0.00005   0.00005   0.00021   0.00027   0.00000
   3        3S          0.00030   0.00029  -0.00032  -0.00006  -0.00000
   4        4PX        -0.00003  -0.00003  -0.00010  -0.00008   0.00000
   5        4PY        -0.00001   0.00001  -0.00000  -0.00000   0.00024
   6        4PZ         0.00000   0.00000  -0.00017   0.00014  -0.00000
   7        5PX         0.00021   0.00021  -0.00208  -0.00159   0.00002
   8        5PY        -0.00012   0.00013  -0.00000  -0.00000   0.00050
   9        5PZ        -0.00002  -0.00002  -0.00020   0.00040  -0.00000
  10        6PX        -0.00009  -0.00008  -0.00015  -0.00008   0.00000
  11        6PY         0.00025  -0.00026  -0.00000  -0.00000  -0.00047
  12        6PZ        -0.00002  -0.00002   0.00037  -0.00025   0.00000
  13        7D 0       -0.00002  -0.00002   0.00002   0.00001  -0.00000
  14        7D+1        0.00000   0.00000   0.00007  -0.00009  -0.00000
  15        7D-1        0.00000  -0.00000   0.00000   0.00000  -0.00002
  16        7D+2        0.00001   0.00001   0.00003   0.00003   0.00000
  17        7D-2        0.00001  -0.00001   0.00000  -0.00000   0.00009
  18        8D 0        0.00001   0.00001  -0.00004  -0.00011  -0.00001
  19        8D+1       -0.00000  -0.00000   0.00051  -0.00073  -0.00000
  20        8D-1        0.00002  -0.00003   0.00000   0.00000  -0.00012
  21        8D+2       -0.00008  -0.00008   0.00070   0.00097   0.00000
  22        8D-2       -0.00034   0.00035  -0.00000  -0.00000   0.00092
  23 2   Ti 1S         -0.00001  -0.00001   0.00030   0.00004   0.00000
  24        2S         -0.00000  -0.00000   0.00012   0.00003   0.00000
  25        3S         -0.00024  -0.00023   0.00118   0.00076  -0.00001
  26        4PX        -0.00000  -0.00000  -0.00002  -0.00002  -0.00000
  27        4PY         0.00001  -0.00001  -0.00000   0.00000   0.00019
  28        4PZ         0.00000   0.00000  -0.00000  -0.00001   0.00000
  29        5PX         0.00012   0.00012  -0.00056  -0.00033  -0.00000
  30        5PY         0.00010  -0.00011   0.00000   0.00000   0.00037
  31        5PZ        -0.00002  -0.00002   0.00007   0.00018  -0.00000
  32        6PX         0.00006   0.00006  -0.00011  -0.00008   0.00000
  33        6PY        -0.00009   0.00009   0.00000   0.00000   0.00001
  34        6PZ         0.00000   0.00000  -0.00012   0.00011  -0.00000
  35        7D 0        0.00000   0.00000  -0.00001  -0.00003  -0.00000
  36        7D+1        0.00000   0.00000  -0.00001   0.00001  -0.00000
  37        7D-1       -0.00000   0.00000   0.00000   0.00000   0.00002
  38        7D+2        0.00000   0.00000  -0.00001  -0.00001  -0.00000
  39        7D-2        0.00001  -0.00001   0.00000   0.00000  -0.00015
  40        8D 0        0.00000   0.00000  -0.00005   0.00009  -0.00000
  41        8D+1       -0.00000  -0.00000   0.00015  -0.00020  -0.00000
  42        8D-1        0.00000  -0.00000   0.00000   0.00000   0.00001
  43        8D+2       -0.00003  -0.00003   0.00008  -0.00009   0.00000
  44        8D-2       -0.00008   0.00008  -0.00000  -0.00000  -0.00036
  45 3   O  1S          0.00001  -0.00002   0.00003   0.00026  -0.70182
  46        2S          0.00003  -0.00005   0.00001   0.00007  -0.00445
  47        3S         -0.00015   0.00018   0.00000  -0.00024   0.00282
  48        4PX         0.00001   0.00001   0.00001   0.00002  -0.00000
  49        4PY        -0.00001  -0.00000   0.00003   0.00003  -0.00053
  50        4PZ         0.00000  -0.00000   0.00001  -0.00001   0.00001
  51        5PX         0.00003  -0.00007  -0.00007  -0.00009  -0.00003
  52        5PY         0.00002   0.00005  -0.00023  -0.00035   0.00053
  53        5PZ        -0.00002   0.00003  -0.00006   0.00008  -0.00001
  54 4   O  1S         -0.00002   0.00001   0.00003   0.00026   0.71073
  55        2S         -0.00005   0.00004   0.00001   0.00007   0.00450
  56        3S          0.00017  -0.00016   0.00000  -0.00024  -0.00287
  57        4PX         0.00001   0.00001   0.00001   0.00002   0.00000
  58        4PY         0.00000   0.00001  -0.00003  -0.00003  -0.00053
  59        4PZ        -0.00000   0.00000   0.00001  -0.00001  -0.00001
  60        5PX        -0.00007   0.00004  -0.00007  -0.00009   0.00003
  61        5PY        -0.00005  -0.00002   0.00023   0.00035   0.00054
  62        5PZ         0.00002  -0.00002  -0.00006   0.00008   0.00001
  63 5   O  1S         -0.00000  -0.00000  -0.00021   0.99884  -0.00000
  64        2S         -0.00001  -0.00001   0.00011   0.00649   0.00000
  65        3S          0.00013   0.00013  -0.00052  -0.00463  -0.00000
  66        4PX        -0.00002  -0.00002   0.00000  -0.00004  -0.00000
  67        4PY         0.00001  -0.00001  -0.00000  -0.00000  -0.00002
  68        4PZ        -0.00002  -0.00002   0.00006  -0.00073  -0.00000
  69        5PX         0.00013   0.00013  -0.00001  -0.00010  -0.00000
  70        5PY         0.00000  -0.00000   0.00000   0.00000   0.00013
  71        5PZ         0.00007   0.00007   0.00008   0.00093   0.00000
  72 6   O  1S         -0.00000  -0.00000   0.99884   0.00022  -0.00000
  73        2S         -0.00001  -0.00001   0.00642   0.00011   0.00000
  74        3S          0.00014   0.00014  -0.00442  -0.00052   0.00000
  75        4PX        -0.00002  -0.00002  -0.00004  -0.00000  -0.00000
  76        4PY         0.00000  -0.00000   0.00000  -0.00000  -0.00000
  77        4PZ         0.00002   0.00002   0.00075  -0.00005   0.00000
  78        5PX         0.00012   0.00011   0.00005   0.00005   0.00000
  79        5PY         0.00002  -0.00002   0.00000   0.00000   0.00002
  80        5PZ        -0.00006  -0.00006  -0.00089  -0.00015  -0.00000
  81 7   O  1S         -0.00000  -0.00000   0.00001  -0.00002   0.00000
  82        2S         -0.00000  -0.00000   0.00002  -0.00002   0.00000
  83        3S          0.00001   0.00001  -0.00010   0.00008   0.00000
  84        4PX        -0.00000  -0.00000   0.00001  -0.00001  -0.00000
  85        4PY        -0.00000   0.00000  -0.00000   0.00000  -0.00002
  86        4PZ        -0.00000  -0.00000   0.00000   0.00002  -0.00000
  87        5PX         0.00000   0.00000  -0.00007   0.00007   0.00000
  88        5PY         0.00001  -0.00001   0.00000  -0.00000   0.00007
  89        5PZ         0.00000   0.00000   0.00003  -0.00010   0.00000
  90 8   Ti 1S          0.00097   0.00095   0.00035   0.00037   0.00000
  91        2S          0.00024   0.00023   0.00012   0.00013   0.00000
  92        3S         -0.00038  -0.00037  -0.00098  -0.00082   0.00001
  93        4PX        -0.00003  -0.00003   0.00010   0.00010   0.00000
  94        4PY         0.00004  -0.00005   0.00000   0.00000  -0.00001
  95        4PZ         0.00000   0.00000  -0.00015   0.00015   0.00000
  96        5PX        -0.00061  -0.00060   0.00018   0.00022   0.00000
  97        5PY         0.00060  -0.00061   0.00000   0.00000   0.00003
  98        5PZ         0.00000   0.00000  -0.00034   0.00021  -0.00000
  99        6PX         0.00019   0.00019  -0.00025  -0.00024   0.00000
 100        6PY        -0.00038   0.00039   0.00000   0.00000   0.00021
 101        6PZ         0.00001   0.00001  -0.00001  -0.00002   0.00000
 102        7D 0       -0.00006  -0.00005   0.00001   0.00002   0.00000
 103        7D+1        0.00000   0.00000  -0.00010   0.00010   0.00000
 104        7D-1        0.00000  -0.00000  -0.00000   0.00000  -0.00000
 105        7D+2       -0.00001  -0.00001   0.00002   0.00002   0.00000
 106        7D-2       -0.00001   0.00001  -0.00000  -0.00000  -0.00003
 107        8D 0       -0.00030  -0.00029   0.00012   0.00013  -0.00000
 108        8D+1        0.00001   0.00001  -0.00032   0.00023  -0.00000
 109        8D-1       -0.00000   0.00000   0.00000  -0.00000  -0.00001
 110        8D+2       -0.00046  -0.00045   0.00051   0.00047  -0.00000
 111        8D-2       -0.00069   0.00072  -0.00000  -0.00000   0.00049
 112 9   O  1S          0.01475   0.99870   0.00000   0.00000  -0.00002
 113        2S          0.00013   0.00648   0.00001   0.00002   0.00005
 114        3S         -0.00007  -0.00434   0.00007   0.00005  -0.00024
 115        4PX         0.00003  -0.00045   0.00001   0.00001  -0.00002
 116        4PY         0.00002  -0.00058   0.00003   0.00003   0.00000
 117        4PZ         0.00000   0.00001   0.00001  -0.00001   0.00000
 118        5PX        -0.00030   0.00043   0.00000  -0.00001   0.00010
 119        5PY        -0.00014   0.00055  -0.00018  -0.00017  -0.00006
 120        5PZ        -0.00000  -0.00002  -0.00004   0.00004  -0.00001
 121 10  H  1S         -0.00005   0.00007  -0.00005  -0.00005   0.00002
 122        2S         -0.00010   0.00104   0.00005   0.00005  -0.00000
 123 11  O  1S          0.99870  -0.01475   0.00000   0.00000   0.00002
 124        2S          0.00648  -0.00006   0.00001   0.00002  -0.00005
 125        3S         -0.00434   0.00006   0.00007   0.00005   0.00024
 126        4PX        -0.00044   0.00004   0.00001   0.00001   0.00002
 127        4PY         0.00058  -0.00004  -0.00003  -0.00003   0.00000
 128        4PZ         0.00001   0.00000   0.00001  -0.00001  -0.00000
 129        5PX         0.00042  -0.00032   0.00000  -0.00001  -0.00010
 130        5PY        -0.00055   0.00016   0.00018   0.00017  -0.00006
 131        5PZ        -0.00002  -0.00000  -0.00004   0.00004   0.00001
 132 12  H  1S          0.00007  -0.00005  -0.00006  -0.00005  -0.00002
 133        2S          0.00104  -0.00013   0.00005   0.00004   0.00000
                           6         7         8         9        10
                           O         O         O         O         O
     Eigenvalues --   -19.08499 -19.07527  -2.41127  -2.38599  -2.37836
   1 1   Ti 1S          0.00154  -0.00003   0.00113   0.00049  -0.00740
   2        2S          0.00043   0.00002   0.02745   0.11813   0.99388
   3        3S         -0.00048   0.00017  -0.00123   0.00412   0.00522
   4        4PX         0.00015   0.00002  -0.00135   0.00136   0.00051
   5        4PY        -0.00000  -0.00000  -0.00000   0.00000   0.00000
   6        4PZ        -0.00002  -0.00000  -0.00007  -0.00046  -0.00150
   7        5PX         0.00259  -0.00032  -0.00035   0.00114  -0.00050
   8        5PY        -0.00000   0.00000   0.00000   0.00000   0.00000
   9        5PZ        -0.00013  -0.00025   0.00023  -0.00008  -0.00061
  10        6PX         0.00017  -0.00005   0.00071   0.00064  -0.00035
  11        6PY         0.00000  -0.00000   0.00000   0.00000   0.00000
  12        6PZ         0.00003   0.00022  -0.00015   0.00026   0.00015
  13        7D 0       -0.00005   0.00000  -0.00054  -0.00044  -0.00157
  14        7D+1       -0.00001  -0.00001  -0.00005  -0.00027   0.00034
  15        7D-1        0.00000   0.00000   0.00000  -0.00000   0.00000
  16        7D+2        0.00001  -0.00000   0.00074   0.00090   0.00165
  17        7D-2       -0.00000  -0.00000   0.00000   0.00000   0.00000
  18        8D 0       -0.00083  -0.00003  -0.00354   0.00181   0.00248
  19        8D+1       -0.00048   0.00013   0.00093   0.00140   0.00089
  20        8D-1        0.00000  -0.00000  -0.00000  -0.00000   0.00000
  21        8D+2        0.00061  -0.00003  -0.00054   0.00261  -0.00484
  22        8D-2       -0.00001   0.00000  -0.00000   0.00000  -0.00000
  23 2   Ti 1S          0.00016   0.00102   0.00054  -0.00720   0.00106
  24        2S          0.00003   0.00045   0.00042   0.99366  -0.11964
  25        3S         -0.00102   0.00002  -0.00058  -0.00128  -0.00222
  26        4PX        -0.00014   0.00013   0.00021   0.00419  -0.00200
  27        4PY        -0.00000   0.00000   0.00000  -0.00000   0.00000
  28        4PZ         0.00006   0.00025   0.00003   0.01412  -0.00146
  29        5PX        -0.00018   0.00040  -0.00080   0.00432   0.00141
  30        5PY        -0.00000   0.00000   0.00000  -0.00000  -0.00000
  31        5PZ        -0.00008   0.00090  -0.00027  -0.00204   0.00111
  32        6PX         0.00029  -0.00015   0.00038  -0.00075   0.00020
  33        6PY        -0.00000  -0.00000  -0.00000   0.00000  -0.00000
  34        6PZ        -0.00007  -0.00039   0.00009  -0.00025  -0.00036
  35        7D 0       -0.00006  -0.00002   0.00002   0.00051  -0.00039
  36        7D+1       -0.00000   0.00000  -0.00001  -0.00153  -0.00007
  37        7D-1       -0.00000  -0.00000  -0.00000  -0.00000   0.00000
  38        7D+2       -0.00000   0.00000  -0.00008   0.00121   0.00071
  39        7D-2        0.00000   0.00000   0.00000   0.00000  -0.00000
  40        8D 0       -0.00042   0.00026  -0.00013   0.00013   0.00231
  41        8D+1       -0.00021   0.00037   0.00048   0.00147   0.00079
  42        8D-1       -0.00000   0.00000  -0.00000  -0.00000  -0.00000
  43        8D+2        0.00007   0.00015   0.00069  -0.00136   0.00204
  44        8D-2        0.00000   0.00000  -0.00000   0.00000   0.00000
  45 3   O  1S          0.71073  -0.00001  -0.00006  -0.00280  -0.00281
  46        2S          0.00461   0.00003   0.00048   0.00503   0.00506
  47        3S         -0.00340  -0.00005  -0.00142   0.00522   0.00524
  48        4PX         0.00000  -0.00001  -0.00017   0.00362  -0.00566
  49        4PY         0.00046  -0.00000   0.00002   0.00447   0.00439
  50        4PZ        -0.00001  -0.00001   0.00006  -0.00057   0.00090
  51        5PX         0.00001  -0.00003   0.00056  -0.00219   0.00402
  52        5PY        -0.00068  -0.00004   0.00001  -0.00119  -0.00017
  53        5PZ         0.00001   0.00002  -0.00043   0.00052  -0.00055
  54 4   O  1S          0.70182  -0.00001  -0.00006  -0.00280  -0.00281
  55        2S          0.00456   0.00003   0.00048   0.00503   0.00506
  56        3S         -0.00336  -0.00005  -0.00142   0.00522   0.00524
  57        4PX         0.00000  -0.00001  -0.00017   0.00362  -0.00566
  58        4PY        -0.00046   0.00000  -0.00002  -0.00447  -0.00439
  59        4PZ        -0.00001  -0.00001   0.00006  -0.00057   0.00090
  60        5PX         0.00001  -0.00003   0.00056  -0.00219   0.00402
  61        5PY         0.00067   0.00004  -0.00001   0.00119   0.00017
  62        5PZ         0.00001   0.00002  -0.00043   0.00052  -0.00055
  63 5   O  1S         -0.00037   0.00002  -0.00304  -0.00027  -0.00243
  64        2S          0.00009  -0.00003   0.00575   0.00071   0.00382
  65        3S         -0.00034   0.00008   0.00484  -0.00028   0.00690
  66        4PX        -0.00002  -0.00002  -0.00484   0.00058   0.00455
  67        4PY         0.00000   0.00000  -0.00000  -0.00000  -0.00000
  68        4PZ        -0.00005  -0.00001  -0.00493  -0.00034  -0.00379
  69        5PX        -0.00001   0.00010   0.00352  -0.00067  -0.00285
  70        5PY        -0.00000  -0.00000   0.00000   0.00000   0.00000
  71        5PZ         0.00042   0.00001   0.00154   0.00002  -0.00027
  72 6   O  1S         -0.00005  -0.00001  -0.00269  -0.00032  -0.00294
  73        2S          0.00001   0.00001   0.00511   0.00104   0.00510
  74        3S          0.00004  -0.00006   0.00427  -0.00140   0.00618
  75        4PX        -0.00001  -0.00001  -0.00450   0.00060   0.00512
  76        4PY         0.00000   0.00000   0.00000   0.00000   0.00000
  77        4PZ         0.00003  -0.00000   0.00429   0.00044   0.00463
  78        5PX         0.00009  -0.00000   0.00312  -0.00085  -0.00359
  79        5PY        -0.00000  -0.00000   0.00000  -0.00000   0.00000
  80        5PZ        -0.00030   0.00001  -0.00136  -0.00016  -0.00011
  81 7   O  1S          0.00002   0.99884  -0.00000  -0.00618   0.00077
  82        2S          0.00001   0.00610   0.00008   0.01299  -0.00122
  83        3S          0.00013  -0.00346  -0.00030   0.00224  -0.00222
  84        4PX        -0.00003  -0.00036  -0.00001  -0.00672   0.00096
  85        4PY         0.00000  -0.00000  -0.00000  -0.00000   0.00000
  86        4PZ        -0.00003  -0.00063  -0.00002  -0.01116   0.00144
  87        5PX         0.00013   0.00030  -0.00003   0.00209  -0.00069
  88        5PY        -0.00000   0.00000   0.00000   0.00000   0.00000
  89        5PZ         0.00013   0.00054   0.00022   0.00469  -0.00081
  90 8   Ti 1S          0.00015  -0.00001  -0.00711   0.00046   0.00085
  91        2S          0.00008   0.00001   1.00323  -0.00412  -0.02844
  92        3S          0.00146  -0.00034   0.00550  -0.00125  -0.00292
  93        4PX         0.00003   0.00001   0.00390  -0.00008   0.00138
  94        4PY         0.00000   0.00000   0.00000  -0.00000  -0.00000
  95        4PZ         0.00001   0.00001   0.00076  -0.00000  -0.00001
  96        5PX         0.00067  -0.00015  -0.00413  -0.00027  -0.00309
  97        5PY        -0.00000   0.00000  -0.00000  -0.00000  -0.00000
  98        5PZ        -0.00008   0.00010   0.00005   0.00026   0.00045
  99        6PX         0.00014  -0.00003   0.00106  -0.00067   0.00030
 100        6PY        -0.00000   0.00000  -0.00000  -0.00000  -0.00000
 101        6PZ         0.00002  -0.00006   0.00003  -0.00013  -0.00012
 102        7D 0        0.00003  -0.00000  -0.00244   0.00001  -0.00060
 103        7D+1        0.00001  -0.00000   0.00001  -0.00003  -0.00002
 104        7D-1        0.00000   0.00000  -0.00000  -0.00000   0.00000
 105        7D+2        0.00002   0.00000  -0.00029   0.00005   0.00083
 106        7D-2        0.00000  -0.00000  -0.00000   0.00000   0.00000
 107        8D 0       -0.00003   0.00004   0.00092  -0.00064  -0.00306
 108        8D+1       -0.00007   0.00007   0.00011   0.00024   0.00033
 109        8D-1        0.00000  -0.00000  -0.00000  -0.00000  -0.00000
 110        8D+2       -0.00007  -0.00001  -0.00221  -0.00035  -0.00294
 111        8D-2       -0.00000   0.00000  -0.00000  -0.00000  -0.00000
 112 9   O  1S          0.00001   0.00000  -0.00352   0.00002   0.00013
 113        2S         -0.00001  -0.00000   0.00667   0.00004   0.00025
 114        3S          0.00002   0.00000   0.00555  -0.00031  -0.00227
 115        4PX         0.00000  -0.00000   0.00421   0.00002  -0.00009
 116        4PY        -0.00001   0.00000   0.00703  -0.00002  -0.00029
 117        4PZ        -0.00000   0.00000   0.00010  -0.00000   0.00000
 118        5PX        -0.00001   0.00001  -0.00496  -0.00026  -0.00061
 119        5PY         0.00007   0.00000  -0.00712  -0.00010   0.00039
 120        5PZ        -0.00000   0.00000  -0.00002   0.00002  -0.00003
 121 10  H  1S          0.00002  -0.00000  -0.00065  -0.00000   0.00026
 122        2S         -0.00002   0.00002  -0.00722  -0.00015  -0.00036
 123 11  O  1S          0.00000   0.00000  -0.00352   0.00002   0.00013
 124        2S         -0.00001  -0.00000   0.00667   0.00004   0.00025
 125        3S          0.00001   0.00000   0.00555  -0.00031  -0.00227
 126        4PX         0.00000  -0.00000   0.00421   0.00002  -0.00009
 127        4PY         0.00001  -0.00000  -0.00703   0.00002   0.00029
 128        4PZ        -0.00000   0.00000   0.00010  -0.00000   0.00000
 129        5PX        -0.00001   0.00001  -0.00495  -0.00026  -0.00061
 130        5PY        -0.00007  -0.00000   0.00713   0.00010  -0.00039
 131        5PZ        -0.00000   0.00000  -0.00002   0.00002  -0.00003
 132 12  H  1S          0.00002  -0.00000  -0.00065  -0.00000   0.00026
 133        2S         -0.00002   0.00002  -0.00722  -0.00015  -0.00035
                          11        12        13        14        15
                           O         O         O         O         O
     Eigenvalues --    -1.53959  -1.53778  -1.52829  -1.51964  -1.51415
   1 1   Ti 1S          0.00394   0.00000  -0.00033  -0.00488   0.00207
   2        2S         -0.00785  -0.00001   0.00048   0.00983  -0.00496
   3        3S          0.00094  -0.00003   0.00381   0.00365   0.00113
   4        4PX        -0.28474  -0.00048   0.01874  -0.46106   0.39209
   5        4PY        -0.00002   0.01633   0.00000   0.00000   0.00000
   6        4PZ        -0.00024  -0.00001   0.06975   0.05433   0.01622
   7        5PX         0.01670   0.00006   0.00458   0.00968   0.00342
   8        5PY         0.00000  -0.00217  -0.00000  -0.00000  -0.00000
   9        5PZ        -0.00081  -0.00000  -0.01100  -0.00111   0.00007
  10        6PX         0.00534   0.00002   0.00298   0.00386   0.00140
  11        6PY         0.00000  -0.00253  -0.00000   0.00000  -0.00000
  12        6PZ        -0.00009  -0.00000   0.00532   0.00040   0.00103
  13        7D 0       -0.00125  -0.00000  -0.00001   0.00403  -0.00249
  14        7D+1        0.00068   0.00000  -0.00202   0.00198  -0.00103
  15        7D-1        0.00000  -0.00004   0.00000  -0.00000   0.00000
  16        7D+2        0.00441   0.00001  -0.00026  -0.00307   0.00091
  17        7D-2        0.00000  -0.00035  -0.00000   0.00000   0.00000
  18        8D 0       -0.00851  -0.00001   0.00026   0.00135  -0.00379
  19        8D+1        0.00072   0.00000   0.00502   0.00156   0.00384
  20        8D-1       -0.00000   0.00047  -0.00000   0.00000  -0.00000
  21        8D+2        0.00193  -0.00000  -0.00020  -0.00568   0.00341
  22        8D-2        0.00001  -0.00559  -0.00000  -0.00000   0.00000
  23 2   Ti 1S         -0.00251  -0.00001  -0.00020  -0.00063   0.00782
  24        2S          0.00141   0.00000  -0.00013  -0.00806  -0.02387
  25        3S         -0.01345  -0.00003  -0.00677  -0.00965  -0.00744
  26        4PX         0.08278   0.00015  -0.00359   0.74782  -0.13863
  27        4PY        -0.00000   0.00130   0.00000   0.00002  -0.00000
  28        4PZ        -0.00257  -0.00000   0.00319   0.35479   0.88006
  29        5PX         0.00899   0.00002   0.00369   0.00721  -0.00133
  30        5PY        -0.00000   0.00209   0.00000   0.00000  -0.00000
  31        5PZ        -0.00273  -0.00001   0.00118  -0.00047   0.00334
  32        6PX        -0.00115  -0.00000  -0.00018  -0.00081   0.00061
  33        6PY         0.00000   0.00083   0.00000  -0.00000   0.00000
  34        6PZ        -0.00010   0.00000  -0.00198  -0.00116  -0.00216
  35        7D 0        0.00100   0.00000  -0.00003   0.00924   0.00704
  36        7D+1        0.00107   0.00000   0.00009   0.01149   0.00688
  37        7D-1        0.00000  -0.00002  -0.00000   0.00000   0.00000
  38        7D+2       -0.00111  -0.00000   0.00012   0.00015   0.00426
  39        7D-2       -0.00000   0.00012   0.00000  -0.00000   0.00000
  40        8D 0       -0.00021   0.00000   0.00040  -0.00293  -0.00208
  41        8D+1        0.00168   0.00000   0.00000  -0.00163   0.00057
  42        8D-1       -0.00000   0.00011  -0.00000  -0.00000  -0.00000
  43        8D+2       -0.00146  -0.00000  -0.00048  -0.00074   0.00131
  44        8D-2        0.00000  -0.00149  -0.00000  -0.00000   0.00000
  45 3   O  1S          0.00496   0.00024  -0.00016   0.01521  -0.00864
  46        2S         -0.00948  -0.00003   0.00035  -0.03278   0.01960
  47        3S         -0.01128  -0.00265   0.00045  -0.02179   0.00841
  48        4PX         0.00287   0.00034   0.00000  -0.00252  -0.00156
  49        4PY        -0.00708  -0.00031   0.00022  -0.02182   0.01253
  50        4PZ        -0.00061  -0.00001   0.00037   0.00221   0.00478
  51        5PX        -0.00024   0.00071   0.00012   0.00231   0.00002
  52        5PY        -0.00135  -0.00004   0.00033  -0.00012  -0.00043
  53        5PZ        -0.00060  -0.00037   0.00002   0.00070   0.00062
  54 4   O  1S          0.00496  -0.00023  -0.00016   0.01521  -0.00864
  55        2S         -0.00948  -0.00000   0.00035  -0.03277   0.01960
  56        3S         -0.01130   0.00261   0.00045  -0.02178   0.00841
  57        4PX         0.00288  -0.00033   0.00000  -0.00252  -0.00156
  58        4PY         0.00708  -0.00028  -0.00022   0.02182  -0.01253
  59        4PZ        -0.00061   0.00001   0.00037   0.00221   0.00478
  60        5PX        -0.00024  -0.00071   0.00012   0.00231   0.00002
  61        5PY         0.00135  -0.00004  -0.00033   0.00012   0.00043
  62        5PZ        -0.00060   0.00037   0.00002   0.00070   0.00062
  63 5   O  1S         -0.01661  -0.00003  -0.01219  -0.00325   0.00282
  64        2S          0.03613   0.00006   0.02765   0.00559  -0.00601
  65        3S          0.02298   0.00003   0.01558   0.00964  -0.00387
  66        4PX        -0.01018  -0.00001  -0.01697   0.01035  -0.00711
  67        4PY        -0.00001   0.00555   0.00000  -0.00000   0.00000
  68        4PZ        -0.02435  -0.00004  -0.01296  -0.00408   0.00372
  69        5PX         0.00681   0.00001   0.00592  -0.00300   0.00376
  70        5PY        -0.00000   0.00072   0.00000   0.00000  -0.00000
  71        5PZ         0.00126   0.00000   0.00410  -0.00187   0.00156
  72 6   O  1S         -0.01529  -0.00003   0.01230  -0.00305   0.00387
  73        2S          0.03325   0.00006  -0.02799   0.00562  -0.00764
  74        3S          0.02140   0.00003  -0.01598   0.00701  -0.00806
  75        4PX        -0.00871  -0.00001   0.01590   0.00882  -0.00836
  76        4PY        -0.00001   0.00494   0.00000  -0.00000   0.00000
  77        4PZ         0.02244   0.00004  -0.01329   0.00446  -0.00531
  78        5PX         0.00609   0.00001  -0.00581  -0.00373   0.00355
  79        5PY        -0.00000   0.00104   0.00000   0.00000  -0.00000
  80        5PZ        -0.00083  -0.00000   0.00426   0.00180  -0.00179
  81 7   O  1S         -0.00131  -0.00000  -0.00002  -0.02252  -0.02167
  82        2S          0.00297   0.00001   0.00027   0.04817   0.04772
  83        3S          0.00094   0.00000  -0.00065   0.02552   0.02034
  84        4PX        -0.00057  -0.00000  -0.00006  -0.01562  -0.02425
  85        4PY        -0.00000   0.00001  -0.00000  -0.00000  -0.00000
  86        4PZ        -0.00242  -0.00000  -0.00003  -0.03426  -0.02734
  87        5PX         0.00023   0.00000   0.00003   0.00239   0.00236
  88        5PY        -0.00000   0.00010   0.00000   0.00000   0.00000
  89        5PZ         0.00104   0.00000   0.00008   0.00403   0.00506
  90 8   Ti 1S          0.00271   0.00001   0.00022   0.00272  -0.00196
  91        2S         -0.00947  -0.00002  -0.00060  -0.00235   0.00274
  92        3S          0.00748   0.00006   0.00335   0.00787   0.00241
  93        4PX         0.93367   0.00146  -0.04178  -0.22183   0.14559
  94        4PY        -0.00156   0.98966   0.00012  -0.00004   0.00002
  95        4PZ         0.04510  -0.00005   0.98979  -0.00270  -0.00668
  96        5PX         0.01140   0.00004   0.00104   0.00392   0.00066
  97        5PY        -0.00002   0.01053   0.00000  -0.00000   0.00000
  98        5PZ         0.00083   0.00000   0.01018   0.00054   0.00048
  99        6PX        -0.00143   0.00000  -0.00052  -0.00079   0.00040
 100        6PY        -0.00000   0.00084  -0.00000   0.00000  -0.00000
 101        6PZ        -0.00016   0.00000  -0.00413  -0.00006  -0.00042
 102        7D 0        0.00179   0.00000   0.00063  -0.00190   0.00161
 103        7D+1        0.00089   0.00000   0.00728  -0.00010  -0.00004
 104        7D-1        0.00000  -0.00005  -0.00000  -0.00000   0.00000
 105        7D+2        0.01083   0.00002  -0.00020  -0.00037  -0.00016
 106        7D-2        0.00001  -0.00727  -0.00000  -0.00000   0.00000
 107        8D 0        0.00154   0.00000   0.00005  -0.00347   0.00298
 108        8D+1        0.00009   0.00000   0.00345   0.00048   0.00033
 109        8D-1        0.00000  -0.00012   0.00000  -0.00000   0.00000
 110        8D+2        0.00005   0.00002  -0.00003   0.00079  -0.00033
 111        8D-2        0.00001  -0.00420  -0.00000  -0.00000   0.00000
 112 9   O  1S          0.01015   0.01791  -0.00018  -0.00247   0.00162
 113        2S         -0.02184  -0.03890   0.00039   0.00552  -0.00371
 114        3S         -0.01554  -0.02647   0.00024   0.00287  -0.00162
 115        4PX        -0.00379  -0.01775  -0.00014   0.00091  -0.00063
 116        4PY        -0.01696  -0.02381   0.00028   0.00405  -0.00274
 117        4PZ         0.00000  -0.00049   0.00682   0.00006  -0.00011
 118        5PX         0.00583   0.00944  -0.00005  -0.00159   0.00131
 119        5PY         0.00782   0.01666   0.00001  -0.00202   0.00186
 120        5PZ         0.00008   0.00004   0.00101  -0.00001   0.00008
 121 10  H  1S         -0.00032  -0.00062   0.00002   0.00020  -0.00007
 122        2S          0.00914   0.01824  -0.00005  -0.00248   0.00194
 123 11  O  1S          0.01021  -0.01788  -0.00018  -0.00247   0.00162
 124        2S         -0.02197   0.03883   0.00039   0.00552  -0.00371
 125        3S         -0.01562   0.02643   0.00025   0.00287  -0.00162
 126        4PX        -0.00385   0.01775  -0.00013   0.00091  -0.00063
 127        4PY         0.01704  -0.02375  -0.00029  -0.00404   0.00274
 128        4PZ        -0.00000   0.00050   0.00682   0.00006  -0.00011
 129        5PX         0.00585  -0.00939  -0.00005  -0.00159   0.00131
 130        5PY        -0.00789   0.01666  -0.00001   0.00202  -0.00187
 131        5PZ         0.00007  -0.00003   0.00101  -0.00001   0.00008
 132 12  H  1S         -0.00032   0.00061   0.00002   0.00020  -0.00007
 133        2S          0.00920  -0.01821  -0.00006  -0.00248   0.00194
                          16        17        18        19        20
                           O         O         O         O         O
     Eigenvalues --    -1.50595  -1.50239  -1.50004  -1.49928  -0.94753
   1 1   Ti 1S         -0.00000  -0.00263   0.00000  -0.00049   0.00073
   2        2S         -0.00000   0.00438  -0.00000   0.00168  -0.00908
   3        3S         -0.00000   0.00238   0.00000   0.00008  -0.00605
   4        4PX         0.00004   0.69678  -0.00001  -0.16488   0.01273
   5        4PY         0.38332  -0.00001   0.91445  -0.00004   0.00000
   6        4PZ         0.00001   0.25261   0.00004   0.95550   0.00080
   7        5PX         0.00000   0.00077  -0.00000  -0.00118   0.06362
   8        5PY        -0.00523   0.00000   0.01217  -0.00000  -0.00000
   9        5PZ         0.00000   0.00291   0.00000   0.00937  -0.00401
  10        6PX         0.00000   0.00109  -0.00000  -0.00122   0.01041
  11        6PY         0.00254  -0.00000  -0.00691   0.00000  -0.00001
  12        6PZ        -0.00000  -0.00153  -0.00000  -0.00537  -0.00060
  13        7D 0       -0.00000  -0.00222   0.00000   0.00041  -0.00077
  14        7D+1       -0.00000  -0.00211  -0.00000  -0.00380   0.00004
  15        7D-1       -0.00060   0.00000  -0.00078   0.00000   0.00000
  16        7D+2       -0.00000  -0.00392  -0.00000   0.00043   0.00392
  17        7D-2        0.00364  -0.00000   0.00430  -0.00000  -0.00000
  18        8D 0       -0.00000  -0.00332  -0.00000   0.00094   0.00107
  19        8D+1       -0.00000   0.00066  -0.00000  -0.00298  -0.00090
  20        8D-1        0.00099  -0.00000  -0.00119   0.00000  -0.00000
  21        8D+2       -0.00000  -0.00568   0.00000   0.00234  -0.00763
  22        8D-2       -0.00234   0.00000   0.00579  -0.00000   0.00001
  23 2   Ti 1S         -0.00000  -0.00031  -0.00000  -0.00077  -0.00444
  24        2S          0.00000  -0.00396   0.00000   0.00347  -0.00247
  25        3S         -0.00000  -0.00159  -0.00000   0.00179  -0.04038
  26        4PX         0.00001   0.58896  -0.00000  -0.19933   0.00191
  27        4PY         0.91340  -0.00004  -0.39258   0.00002   0.00000
  28        4PZ        -0.00002  -0.25913   0.00000   0.03198   0.00053
  29        5PX         0.00000   0.00142   0.00000  -0.00120   0.02662
  30        5PY         0.00623  -0.00000  -0.01267   0.00000  -0.00000
  31        5PZ        -0.00000  -0.00036  -0.00000   0.00081  -0.00444
  32        6PX        -0.00000  -0.00000   0.00000   0.00022  -0.00248
  33        6PY        -0.00221   0.00000   0.00592  -0.00000   0.00000
  34        6PZ         0.00000  -0.00005   0.00000   0.00148  -0.00081
  35        7D 0        0.00000  -0.00051  -0.00000  -0.00010  -0.00040
  36        7D+1       -0.00000   0.00222  -0.00000  -0.00181  -0.00021
  37        7D-1        0.00327  -0.00000  -0.00108   0.00000   0.00000
  38        7D+2        0.00000   0.00241  -0.00000  -0.00158   0.00084
  39        7D-2       -0.00202  -0.00000  -0.00104   0.00000  -0.00000
  40        8D 0        0.00000   0.00164  -0.00000   0.00086   0.00191
  41        8D+1        0.00000  -0.00034  -0.00000  -0.00239   0.00225
  42        8D-1        0.00029  -0.00000  -0.00143   0.00000   0.00000
  43        8D+2        0.00000   0.00490  -0.00000  -0.00300  -0.00327
  44        8D-2       -0.00065   0.00000   0.00526  -0.00000   0.00000
  45 3   O  1S          0.01452  -0.00181   0.00787   0.00203  -0.00154
  46        2S         -0.03233   0.00341  -0.01737  -0.00435   0.00394
  47        3S         -0.02041   0.00285  -0.00998  -0.00244   0.00119
  48        4PX        -0.00738  -0.01771   0.02345   0.00813  -0.00045
  49        4PY        -0.01515   0.00248  -0.00827  -0.00282   0.00104
  50        4PZ         0.00099   0.00392  -0.00355   0.00443   0.00005
  51        5PX         0.00204   0.00737  -0.00569  -0.00285   0.00141
  52        5PY         0.00378   0.00089   0.00176  -0.00035   0.00133
  53        5PZ         0.00020  -0.00093   0.00040   0.00100   0.00021
  54 4   O  1S         -0.01452  -0.00181  -0.00787   0.00203  -0.00154
  55        2S          0.03233   0.00341   0.01737  -0.00435   0.00394
  56        3S          0.02041   0.00285   0.00998  -0.00244   0.00118
  57        4PX         0.00737  -0.01771  -0.02345   0.00813  -0.00045
  58        4PY        -0.01515  -0.00248  -0.00827   0.00282  -0.00104
  59        4PZ        -0.00099   0.00392   0.00355   0.00443   0.00005
  60        5PX        -0.00204   0.00737   0.00569  -0.00285   0.00141
  61        5PY         0.00378  -0.00089   0.00176   0.00035  -0.00133
  62        5PZ        -0.00020  -0.00093  -0.00040   0.00100   0.00020
  63 5   O  1S          0.00000   0.00404  -0.00000  -0.01090  -0.01238
  64        2S         -0.00000  -0.00899   0.00000   0.02393   0.02480
  65        3S         -0.00000  -0.00363   0.00000   0.01599   0.02680
  66        4PX        -0.00000  -0.00758   0.00000   0.01950  -0.00238
  67        4PY         0.00181   0.00000   0.00434  -0.00000  -0.00000
  68        4PZ         0.00000   0.00640  -0.00000  -0.01183  -0.00743
  69        5PX         0.00000   0.00368  -0.00000  -0.00439   0.00230
  70        5PY        -0.00011  -0.00000   0.00102  -0.00000  -0.00000
  71        5PZ         0.00000   0.00079  -0.00000   0.00204  -0.00122
  72 6   O  1S          0.00000   0.01075   0.00000   0.00945  -0.01185
  73        2S         -0.00000  -0.02344  -0.00000  -0.02084   0.02364
  74        3S         -0.00000  -0.01391  -0.00000  -0.01355   0.02633
  75        4PX        -0.00000  -0.01781  -0.00000  -0.01604  -0.00226
  76        4PY         0.00209   0.00000   0.00532  -0.00000  -0.00000
  77        4PZ        -0.00000  -0.01425  -0.00000  -0.00930   0.00687
  78        5PX         0.00000   0.00615   0.00000   0.00306   0.00145
  79        5PY         0.00057  -0.00000   0.00025  -0.00000  -0.00000
  80        5PZ        -0.00000   0.00050   0.00000   0.00244   0.00190
  81 7   O  1S         -0.00000  -0.00303   0.00000   0.00258   0.00014
  82        2S          0.00000   0.00685  -0.00000  -0.00579   0.00048
  83        3S          0.00000   0.00192  -0.00000  -0.00158  -0.00260
  84        4PX         0.00000   0.00315   0.00000   0.00037  -0.00004
  85        4PY         0.00980  -0.00000  -0.00436   0.00000   0.00000
  86        4PZ        -0.00000  -0.00791   0.00000   0.00485  -0.00037
  87        5PX         0.00000   0.00070   0.00000   0.00099   0.00060
  88        5PY         0.00054   0.00000   0.00049  -0.00000  -0.00000
  89        5PZ         0.00000   0.00043  -0.00000  -0.00165   0.00201
  90 8   Ti 1S         -0.00000  -0.00343  -0.00000   0.00085   0.05624
  91        2S          0.00000   0.00588  -0.00000  -0.00117  -0.09016
  92        3S          0.00000   0.00001  -0.00000  -0.00147   0.03396
  93        4PX         0.00001   0.17649  -0.00001  -0.03250   0.09069
  94        4PY        -0.00825   0.00001  -0.01616  -0.00001  -0.00015
  95        4PZ        -0.00000  -0.02373  -0.00000  -0.07494   0.00167
  96        5PX         0.00000  -0.00002  -0.00000  -0.00060   0.02328
  97        5PY         0.00189   0.00000  -0.00110  -0.00000   0.00001
  98        5PZ        -0.00000  -0.00247  -0.00000  -0.00846   0.00139
  99        6PX         0.00000  -0.00024  -0.00000   0.00018  -0.00243
 100        6PY        -0.00091   0.00000   0.00195  -0.00000   0.00000
 101        6PZ         0.00000   0.00131   0.00000   0.00431   0.00020
 102        7D 0        0.00000   0.00219  -0.00000  -0.00047  -0.03562
 103        7D+1        0.00000   0.00031   0.00000   0.00119   0.00122
 104        7D-1        0.00001   0.00000  -0.00002  -0.00000  -0.00000
 105        7D+2       -0.00000  -0.00132  -0.00000   0.00034  -0.02607
 106        7D-2        0.00014   0.00000   0.00065  -0.00000  -0.00005
 107        8D 0        0.00000   0.00532   0.00000  -0.00118  -0.00595
 108        8D+1       -0.00000  -0.00128  -0.00000  -0.00396   0.00075
 109        8D-1        0.00010   0.00000  -0.00010  -0.00000   0.00000
 110        8D+2        0.00000   0.00049  -0.00000  -0.00070   0.00336
 111        8D-2        0.00175   0.00000   0.00549  -0.00000   0.00001
 112 9   O  1S         -0.00016   0.00197  -0.00029  -0.00038  -0.16478
 113        2S          0.00035  -0.00478   0.00109   0.00100   0.35111
 114        3S         -0.00020  -0.00114  -0.00184  -0.00004   0.32290
 115        4PX         0.00004  -0.00090   0.00007   0.00022  -0.03691
 116        4PY         0.00019  -0.00337   0.00046   0.00065  -0.05360
 117        4PZ        -0.00000  -0.00027   0.00001  -0.00061   0.00089
 118        5PX         0.00057   0.00257   0.00098  -0.00077   0.00098
 119        5PY        -0.00017   0.00274  -0.00135  -0.00050   0.00257
 120        5PZ         0.00003   0.00015  -0.00008   0.00027   0.00026
 121 10  H  1S         -0.00001  -0.00009   0.00025   0.00004   0.11810
 122        2S          0.00040   0.00314  -0.00105  -0.00073   0.02155
 123 11  O  1S          0.00016   0.00197   0.00029  -0.00038  -0.16506
 124        2S         -0.00035  -0.00478  -0.00109   0.00100   0.35170
 125        3S          0.00020  -0.00113   0.00184  -0.00004   0.32346
 126        4PX        -0.00004  -0.00090  -0.00007   0.00022  -0.03678
 127        4PY         0.00019   0.00337   0.00046  -0.00065   0.05384
 128        4PZ         0.00000  -0.00027  -0.00001  -0.00061   0.00096
 129        5PX        -0.00057   0.00257  -0.00098  -0.00077   0.00101
 130        5PY        -0.00017  -0.00274  -0.00135   0.00050  -0.00257
 131        5PZ        -0.00003   0.00015   0.00008   0.00027   0.00027
 132 12  H  1S          0.00001  -0.00009  -0.00025   0.00004   0.11830
 133        2S         -0.00040   0.00314   0.00105  -0.00073   0.02160
                          21        22        23        24        25
                           O         O         O         O         O
     Eigenvalues --    -0.94137  -0.87994  -0.86420  -0.85755  -0.85714
   1 1   Ti 1S          0.00000   0.09913  -0.00175  -0.01776   0.00001
   2        2S         -0.00001  -0.13975   0.00276   0.02475  -0.00002
   3        3S         -0.00003   0.07030   0.01117  -0.01661   0.00001
   4        4PX         0.00001   0.02818   0.08725   0.22334  -0.00013
   5        4PY        -0.00076   0.00000  -0.00001  -0.00009  -0.15518
   6        4PZ         0.00000   0.02496   0.12736  -0.06173   0.00003
   7        5PX         0.00007  -0.00450   0.03436   0.05450  -0.00004
   8        5PY         0.00545   0.00000   0.00000   0.00001   0.02553
   9        5PZ        -0.00000  -0.00518  -0.02745   0.00331   0.00000
  10        6PX         0.00001  -0.00081   0.01574   0.01195  -0.00001
  11        6PY         0.00472   0.00000  -0.00000  -0.00000  -0.00051
  12        6PZ        -0.00000  -0.00198   0.00116   0.00133  -0.00000
  13        7D 0       -0.00000  -0.01876   0.01674   0.03996  -0.00002
  14        7D+1        0.00000  -0.00523   0.07509  -0.01193   0.00000
  15        7D-1        0.00003   0.00000  -0.00000  -0.00001  -0.01222
  16        7D+2        0.00000   0.03995   0.00743   0.01688  -0.00001
  17        7D-2       -0.00027  -0.00000   0.00001   0.00005   0.08258
  18        8D 0        0.00000  -0.00984   0.00613   0.01509  -0.00001
  19        8D+1       -0.00000  -0.00912  -0.00265  -0.00174   0.00000
  20        8D-1       -0.00006   0.00000  -0.00000  -0.00000  -0.00067
  21        8D+2       -0.00001   0.02629   0.00291   0.00463  -0.00000
  22        8D-2       -0.00660  -0.00000  -0.00000  -0.00000  -0.00477
  23 2   Ti 1S         -0.00000   0.02996  -0.02009  -0.05458   0.00003
  24        2S         -0.00000  -0.06245   0.02768   0.08180  -0.00005
  25        3S         -0.00004  -0.05547  -0.03593  -0.02383   0.00002
  26        4PX         0.00000   0.08906  -0.03613  -0.09871   0.00006
  27        4PY        -0.00000   0.00000  -0.00001  -0.00007  -0.12843
  28        4PZ         0.00000  -0.02370   0.01209   0.04026  -0.00002
  29        5PX         0.00003   0.03300   0.02874   0.04053  -0.00002
  30        5PY        -0.00092   0.00000   0.00000   0.00001   0.02113
  31        5PZ        -0.00000  -0.00017   0.00482  -0.01155   0.00001
  32        6PX        -0.00000   0.00008  -0.00326  -0.00739   0.00000
  33        6PY        -0.00171  -0.00000  -0.00000  -0.00000  -0.00586
  34        6PZ        -0.00000  -0.00154  -0.00293   0.00040  -0.00000
  35        7D 0       -0.00000  -0.02035   0.00787   0.02148  -0.00001
  36        7D+1       -0.00000  -0.00252  -0.00057  -0.00232   0.00000
  37        7D-1       -0.00002   0.00000   0.00000   0.00000   0.00946
  38        7D+2        0.00000   0.01135  -0.00391  -0.01034   0.00001
  39        7D-2        0.00012   0.00000  -0.00000  -0.00004  -0.07004
  40        8D 0        0.00000   0.00105   0.00777   0.01084  -0.00001
  41        8D+1        0.00000   0.00367  -0.00437   0.00311  -0.00000
  42        8D-1       -0.00023   0.00000   0.00000   0.00000   0.00134
  43        8D+2       -0.00000  -0.01264  -0.00534  -0.00359   0.00000
  44        8D-2        0.00028  -0.00000  -0.00000  -0.00000  -0.00627
  45 3   O  1S         -0.00007  -0.10071   0.04445   0.12659   0.17252
  46        2S          0.00060   0.21023  -0.09240  -0.26291  -0.35706
  47        3S         -0.00237   0.21019  -0.09590  -0.27345  -0.38872
  48        4PX         0.00010  -0.00364   0.00069  -0.00213   0.00226
  49        4PY         0.00011   0.04095  -0.01543  -0.03975  -0.05400
  50        4PZ         0.00003   0.00012   0.00354   0.00027   0.00043
  51        5PX        -0.00016  -0.00236   0.00004   0.00110   0.00069
  52        5PY        -0.00081   0.01389  -0.00888  -0.02557  -0.03680
  53        5PZ        -0.00036   0.00110   0.00181   0.00052   0.00026
  54 4   O  1S          0.00007  -0.10071   0.04443   0.12639  -0.17267
  55        2S         -0.00059   0.21021  -0.09235  -0.26251   0.35738
  56        3S          0.00237   0.21018  -0.09585  -0.27301   0.38905
  57        4PX        -0.00010  -0.00364   0.00069  -0.00213  -0.00225
  58        4PY         0.00010  -0.04095   0.01542   0.03968  -0.05405
  59        4PZ        -0.00003   0.00011   0.00354   0.00027  -0.00043
  60        5PX         0.00017  -0.00236   0.00004   0.00110  -0.00069
  61        5PY        -0.00081  -0.01389   0.00887   0.02552  -0.03683
  62        5PZ         0.00036   0.00110   0.00181   0.00052  -0.00026
  63 5   O  1S         -0.00001  -0.13401   0.12832  -0.15409   0.00008
  64        2S          0.00002   0.28090  -0.26553   0.31961  -0.00016
  65        3S          0.00002   0.27680  -0.29146   0.33772  -0.00017
  66        4PX        -0.00000   0.00246  -0.00002  -0.00654   0.00000
  67        4PY         0.00225  -0.00000   0.00000  -0.00000  -0.00404
  68        4PZ        -0.00001  -0.05267   0.04217  -0.04723   0.00002
  69        5PX         0.00000  -0.00142  -0.00016   0.00031  -0.00000
  70        5PY         0.00109   0.00000   0.00000  -0.00000  -0.00138
  71        5PZ         0.00000  -0.02131   0.02799  -0.03378   0.00002
  72 6   O  1S         -0.00001  -0.13381  -0.19705  -0.03878   0.00003
  73        2S          0.00002   0.27863   0.40817   0.08144  -0.00007
  74        3S          0.00002   0.28400   0.44152   0.07821  -0.00006
  75        4PX        -0.00000   0.00081  -0.00156  -0.00259   0.00000
  76        4PY         0.00202   0.00000   0.00000  -0.00000  -0.00345
  77        4PZ         0.00001   0.05201   0.06340   0.01136  -0.00001
  78        5PX        -0.00000   0.00125  -0.00276  -0.00040   0.00000
  79        5PY         0.00094   0.00000   0.00000  -0.00000  -0.00114
  80        5PZ        -0.00000   0.02376   0.04422   0.00856  -0.00001
  81 7   O  1S          0.00000  -0.01295   0.00884   0.02868  -0.00002
  82        2S          0.00000   0.02895  -0.01839  -0.06145   0.00003
  83        3S         -0.00000   0.02121  -0.01894  -0.05840   0.00003
  84        4PX        -0.00000  -0.00168   0.00111   0.00423  -0.00000
  85        4PY        -0.00002   0.00000  -0.00000  -0.00000  -0.00247
  86        4PZ        -0.00000  -0.00697   0.00397   0.01147  -0.00001
  87        5PX         0.00000   0.00055   0.00189   0.00010  -0.00000
  88        5PY         0.00016  -0.00000  -0.00000  -0.00000  -0.00152
  89        5PZ         0.00000   0.00290  -0.00183  -0.00082   0.00000
  90 8   Ti 1S          0.00005   0.04301   0.01212   0.04351  -0.00002
  91        2S         -0.00007  -0.07466  -0.01525  -0.05430   0.00003
  92        3S          0.00006  -0.06070   0.02756   0.04903  -0.00004
  93        4PX         0.00007  -0.14228  -0.03044  -0.09728   0.00005
  94        4PY         0.17019  -0.00000   0.00000   0.00000   0.00139
  95        4PZ        -0.00000  -0.00719   0.13257  -0.05268   0.00002
  96        5PX         0.00004  -0.03026   0.02189   0.05974  -0.00004
  97        5PY        -0.01329  -0.00000   0.00000  -0.00000  -0.01188
  98        5PZ         0.00000  -0.00178  -0.01790   0.00953  -0.00000
  99        6PX         0.00000  -0.00072  -0.00406  -0.00726   0.00000
 100        6PY        -0.00570  -0.00000   0.00000   0.00000   0.00142
 101        6PZ         0.00000   0.00158   0.00508  -0.00276   0.00000
 102        7D 0       -0.00003   0.00976   0.00074   0.01144  -0.00001
 103        7D+1       -0.00000   0.00298  -0.07476   0.02913  -0.00001
 104        7D-1        0.00128   0.00000   0.00000   0.00000  -0.00002
 105        7D+2       -0.00002   0.03847   0.00827   0.02459  -0.00001
 106        7D-2        0.05433  -0.00000  -0.00000  -0.00000  -0.00026
 107        8D 0       -0.00001   0.00919  -0.00060  -0.00039   0.00000
 108        8D+1        0.00000  -0.00133  -0.00305   0.00234  -0.00000
 109        8D-1       -0.00017  -0.00000  -0.00000  -0.00000  -0.00010
 110        8D+2        0.00002  -0.00519   0.00550   0.01943  -0.00001
 111        8D-2       -0.00657  -0.00000  -0.00000  -0.00001  -0.01017
 112 9   O  1S         -0.16506   0.01055   0.00179   0.00564  -0.00011
 113        2S          0.35048  -0.02153  -0.00402  -0.01281   0.00004
 114        3S          0.33126  -0.02534  -0.00309  -0.00885   0.00277
 115        4PX        -0.04447   0.00397   0.00069   0.00255   0.00027
 116        4PY        -0.05982   0.01101   0.00193   0.00712  -0.00019
 117        4PZ         0.00075  -0.00015   0.00249  -0.00100   0.00001
 118        5PX         0.00259  -0.00401  -0.00000  -0.00063  -0.00252
 119        5PY         0.01116  -0.00826  -0.00077  -0.00446   0.00080
 120        5PZ         0.00028  -0.00011   0.00201  -0.00082   0.00001
 121 10  H  1S          0.12192  -0.01093  -0.00189  -0.00657   0.00024
 122        2S          0.02709  -0.00677  -0.00070  -0.00324  -0.00232
 123 11  O  1S          0.16478   0.01055   0.00179   0.00564   0.00011
 124        2S         -0.34989  -0.02153  -0.00402  -0.01281  -0.00002
 125        3S         -0.33071  -0.02534  -0.00309  -0.00885  -0.00276
 126        4PX         0.04420   0.00395   0.00069   0.00254  -0.00027
 127        4PY        -0.05987  -0.01102  -0.00193  -0.00713  -0.00018
 128        4PZ        -0.00083  -0.00016   0.00249  -0.00100  -0.00001
 129        5PX        -0.00261  -0.00401  -0.00000  -0.00064   0.00251
 130        5PY         0.01114   0.00826   0.00077   0.00448   0.00080
 131        5PZ        -0.00029  -0.00011   0.00201  -0.00082  -0.00001
 132 12  H  1S         -0.12173  -0.01093  -0.00189  -0.00657  -0.00023
 133        2S         -0.02705  -0.00677  -0.00070  -0.00326   0.00231
                          26        27        28        29        30
                           O         O         O         O         O
     Eigenvalues --    -0.82666  -0.49156  -0.48060  -0.36258  -0.34489
   1 1   Ti 1S         -0.01454   0.00430  -0.00001   0.13284   0.02656
   2        2S          0.00958   0.00257  -0.00000  -0.09584  -0.01848
   3        3S         -0.01801  -0.02089  -0.00009   0.09579  -0.00389
   4        4PX         0.02697  -0.00328   0.00000   0.02371  -0.03275
   5        4PY        -0.00000  -0.00001  -0.00618  -0.00000  -0.00002
   6        4PZ        -0.00332   0.00031  -0.00000  -0.00733  -0.04778
   7        5PX        -0.10061  -0.09263   0.00014  -0.00311  -0.03980
   8        5PY         0.00000   0.00000   0.00581   0.00000  -0.00001
   9        5PZ        -0.00015   0.00695  -0.00001   0.01289   0.01253
  10        6PX        -0.02017  -0.00821   0.00003   0.00735  -0.00489
  11        6PY         0.00000  -0.00000  -0.02023  -0.00000  -0.00000
  12        6PZ         0.00169   0.00158  -0.00001  -0.01000  -0.01435
  13        7D 0        0.00679   0.00659   0.00000  -0.12579   0.05330
  14        7D+1        0.00091   0.00017  -0.00000  -0.04139  -0.27203
  15        7D-1       -0.00000   0.00000  -0.00004   0.00000   0.00000
  16        7D+2        0.00160  -0.00179  -0.00001   0.20670   0.02206
  17        7D-2        0.00000  -0.00001  -0.01101  -0.00006   0.00022
  18        8D 0        0.01350   0.00040   0.00001  -0.07279   0.02016
  19        8D+1        0.00492   0.00009   0.00000  -0.00956  -0.05772
  20        8D-1       -0.00000   0.00000   0.00068   0.00000   0.00000
[...]
  59         V                 0.020426          1.706215
  60         V                 0.022524          3.163743
  61         V                 0.023883          2.137601
  62         V                 0.025205          1.634098
  63         V                 0.031871          1.662658
  64         V                 0.033017          1.060288
  65         V                 0.036947          2.543987
  66         V                 0.041333          2.843903
  67         V                 0.045489          2.057430
  68         V                 0.047643          0.378760
  69         V                 0.053861          1.537297
  70         V                 0.054635          1.101523
  71         V                 0.067485          3.849455
  72         V                 0.069317          4.017263
  73         V                 0.085972          1.060287
  74         V                 0.108788          0.902920
  75         V                 0.138130          0.976842
  76         V                 0.140330          0.931825
  77         V                 0.155946          1.009275
  78         V                 0.156554          0.947573
  79         V                 0.172941          1.197208
  80         V                 0.179346          1.321848
  81         V                 0.183328          1.361158
  82         V                 0.192497          1.237667
  83         V                 0.207465          1.180806
  84         V                 0.220367          1.314019
  85         V                 0.238145          1.261542
  86         V                 0.331691          1.456236
  87         V                 0.341189          1.536440
  88         V                 0.348211          1.543683
  89         V                 0.359220          1.381345
  90         V                 0.365887          1.443256
  91         V                 0.367427          1.563862
  92         V                 0.370574          1.837076
  93         V                 0.387515          1.344353
  94         V                 0.390032          1.563305
  95         V                 0.402960          1.524695
  96         V                 0.403943          1.623606
  97         V                 0.453732          2.141624
  98         V                 0.473632          1.764491
  99         V                 0.520141          1.628352
 100         V                 0.534210          1.733087
 101         V                 0.644750          2.083369
 102         V                 0.706952          2.895487
 103         V                 0.747816          2.848286
 104         V                 0.766131          3.064105
 105         V                 0.772341          2.890852
 106         V                 0.774716          2.922109
 107         V                 0.811053          2.892207
 108         V                 0.834867          3.051870
 109         V                 0.837700          2.912944
 110         V                 0.857818          3.249140
 111         V                 0.873482          2.964778
 112         V                 0.874309          2.862987
 113         V                 0.899517          2.945478
 114         V                 0.909463          3.040764
 115         V                 0.913179          3.157061
 116         V                 0.952726          3.041005
 117         V                 0.970870          3.013383
 118         V                 0.986505          3.022374
 119         V                 0.990848          3.283390
 120         V                 1.034593          3.282152
 121         V                 1.068631          2.996032
 122         V                 1.078653          2.996910
 123         V                 1.125497          3.383871
 124         V                 1.384001          3.795933
 125         V                 1.511418          3.991349
 126         V                 1.524015          4.059830
 127         V                 1.576418          4.385801
 128         V                 1.633129          4.303659
 129         V                 1.656991          4.214941
 130         V                 1.741474          4.229333
 131         V                 3.792336          2.437630
 132         V                11.109726          3.023535
 133         V                16.366881          4.159663
 Orbital energies and kinetic energies (beta):
                                 1                 2
   1         O               -19.115903         29.124518
   2         O               -19.115891         29.124529
   3         O               -19.091603         29.126056
   4         O               -19.089060         29.126044
   5         O               -19.085803         29.126114
   6         O               -19.085801         29.126079
   7         O               -19.075925         29.127232
   8         O                -2.401331          1.342737
   9         O                -2.372372          1.337514
  10         O                -2.358928          1.338380
  11         O                -1.532649          2.331872
  12         O                -1.530499          2.368818
  13         O                -1.513891          2.328220
  14         O                -1.511270          2.377979
  15         O                -1.504082          2.352849
  16         O                -1.488861          2.399277
  17         O                -1.485029          2.371617
  18         O                -1.475790          2.375997
  19         O                -1.468608          2.372913
  20         O                -0.947722          2.765716
  21         O                -0.941537          2.807643
  22         O                -0.881047          2.903051
  23         O                -0.864998          3.063736
  24         O                -0.858615          3.067983
  25         O                -0.858575          3.055320
  26         O                -0.827857          3.126404
  27         O                -0.490475          2.148695
  28         O                -0.480147          2.288582
  29         O                -0.359607          2.210751
  30         O                -0.345150          2.416414
  31         O                -0.341614          2.304742
  32         O                -0.334594          2.282808
  33         O                -0.332319          2.154800
  34         O                -0.327911          2.145091
  35         O                -0.324698          2.219100
  36         O                -0.322172          2.237471
  37         O                -0.319299          2.279998
  38         O                -0.311208          2.181884
  39         O                -0.306184          2.147022
  40         O                -0.304756          2.223711
  41         O                -0.292242          2.322361
  42         O                -0.286459          2.495727
  43         O                -0.276877          2.392890
  44         O                -0.276504          2.250625
  45         O                -0.267514          2.417838
  46         O                -0.256958          2.357106
  47         O                -0.249505          2.357208
  48         V                -0.026821          2.621511
  49         V                -0.022013          3.428086
  50         V                -0.021462          2.213291
  51         V                -0.009180          2.778333
  52         V                -0.006174          3.329806
  53         V                -0.001246          3.057660
  54         V                 0.001359          1.068935
  55         V                 0.001400          1.391814
  56         V                 0.013625          1.856503
  57         V                 0.019143          1.580554
  58         V                 0.021823          1.319065
  59         V                 0.024976          0.902434
  60         V                 0.025477          3.357910
  61         V                 0.026372          2.254117
  62         V                 0.033896          2.087554
  63         V                 0.034235          1.431821
  64         V                 0.038492          2.348768
  65         V                 0.042073          2.358714
  66         V                 0.044463          2.298647
  67         V                 0.048712          0.795710
  68         V                 0.053084          1.034180
  69         V                 0.056569          2.164464
  70         V                 0.065632          2.916700
  71         V                 0.074272          3.870026
  72         V                 0.076609          4.007714
  73         V                 0.087835          1.271881
  74         V                 0.110109          0.960450
  75         V                 0.138982          0.996295
  76         V                 0.142352          0.954257
  77         V                 0.156168          1.014083
  78         V                 0.158225          1.026600
  79         V                 0.174637          1.159018
  80         V                 0.181336          1.419956
  81         V                 0.183853          1.380334
  82         V                 0.193512          1.253010
  83         V                 0.208921          1.222466
  84         V                 0.220849          1.332069
  85         V                 0.243610          1.376846
  86         V                 0.337702          1.527695
  87         V                 0.341199          1.543891
  88         V                 0.354916          1.653027
  89         V                 0.360635          1.372695
  90         V                 0.366751          1.475703
  91         V                 0.367683          1.544606
  92         V                 0.372591          1.861231
  93         V                 0.390591          1.585736
  94         V                 0.394755          1.461600
  95         V                 0.403558          1.541021
  96         V                 0.406657          1.638326
  97         V                 0.455657          2.153198
  98         V                 0.476002          1.800572
  99         V                 0.524384          1.644539
 100         V                 0.536056          1.739682
 101         V                 0.646594          2.097421
 102         V                 0.708068          2.895809
 103         V                 0.747894          2.846799
 104         V                 0.766924          3.062911
 105         V                 0.771963          2.889282
 106         V                 0.774654          2.918874
 107         V                 0.810597          2.888837
 108         V                 0.834989          3.045812
 109         V                 0.837545          2.906735
 110         V                 0.858170          3.240453
 111         V                 0.873127          2.957785
 112         V                 0.873517          2.856848
 113         V                 0.899339          2.944635
 114         V                 0.909568          3.041459
 115         V                 0.913270          3.155312
 116         V                 0.953329          3.040679
 117         V                 0.970686          3.010272
 118         V                 0.986816          3.024024
 119         V                 0.991103          3.283203
 120         V                 1.034288          3.274407
 121         V                 1.068497          2.996298
 122         V                 1.078830          2.994545
 123         V                 1.125788          3.378937
 124         V                 1.383455          3.795601
 125         V                 1.511141          3.988976
 126         V                 1.523812          4.059497
 127         V                 1.576513          4.384991
 128         V                 1.632933          4.300979
 129         V                 1.657221          4.212921
 130         V                 1.741606          4.227743
 131         V                 3.790211          2.438308
 132         V                11.100483          3.023683
 133         V                16.352508          4.159658
 Total kinetic energy from orbitals= 5.992778119555D+02
                          Isotropic Fermi Contact Couplings
        Atom                 a.u.       MegaHertz       Gauss      10(-4) cm-1
     1  Ti(47)            -0.00000       0.00025       0.00009       0.00008
     2  Ti(47)            -0.00000       0.00014       0.00005       0.00005
     3  O(17)             -0.00403       2.44319       0.87179       0.81496
     4  O(17)             -0.00403       2.44356       0.87192       0.81509
     5  O(17)              0.01283      -7.77704      -2.77504      -2.59414
     6  O(17)              0.01841     -11.16282      -3.98317      -3.72352
     7  O(17)             -0.00526       3.18872       1.13781       1.06364
     8  Ti(47)            -0.00000       0.00000       0.00000       0.00000
     9  O(17)             -0.00280       1.69751       0.60571       0.56623
    10  H(1)               0.00068       3.05928       1.09163       1.02047
    11  O(17)             -0.00280       1.69815       0.60594       0.56644
    12  H(1)               0.00068       3.05718       1.09088       1.01976
 --------------------------------------------------------
       Center         ----  Spin Dipole Couplings  ----
                      3XX-RR        3YY-RR        3ZZ-RR
 --------------------------------------------------------
     1   Atom       -0.465717      0.135593      0.330125
     2   Atom       -0.073598      0.183898     -0.110300
     3   Atom       -0.064772      0.077650     -0.012878
     4   Atom       -0.064757      0.077662     -0.012905
     5   Atom       -0.122345     -0.003504      0.125849
     6   Atom       -0.115203      0.000625      0.114579
     7   Atom        0.015754     -0.012143     -0.003610
     8   Atom       -0.091907     -0.086504      0.178411
     9   Atom        0.005456      0.003171     -0.008627
    10   Atom        0.000557      0.000925     -0.001482
    11   Atom        0.005447      0.003192     -0.008639
    12   Atom        0.000558      0.000925     -0.001483
 --------------------------------------------------------
                        XY            XZ            YZ
 --------------------------------------------------------
     1   Atom        0.000003     -0.004935     -0.000014
     2   Atom       -0.000011     -0.209873     -0.000015
     3   Atom        0.081481      0.046589     -0.025810
     4   Atom       -0.081479      0.046602      0.025844
     5   Atom        0.000042      0.041404      0.000003
     6   Atom       -0.000011     -0.053867     -0.000016
     7   Atom       -0.000003      0.009999     -0.000000
     8   Atom       -0.000039     -0.009544      0.000033
     9   Atom        0.009930      0.000629     -0.000243
    10   Atom        0.001981      0.000019      0.000032
    11   Atom       -0.009912      0.000624      0.000250
    12   Atom       -0.001982      0.000020     -0.000033
 --------------------------------------------------------


 ---------------------------------------------------------------------------------
              Anisotropic Spin Dipole Couplings in Principal Axis System
 ---------------------------------------------------------------------------------

       Atom             a.u.   MegaHertz   Gauss  10(-4) cm-1        Axes

              Baa    -0.4657    14.031     5.007     4.680  1.0000 -0.0000  0.0062
     1 Ti(47) Bbb     0.1356    -4.085    -1.458    -1.363  0.0000  1.0000  0.0001
              Bcc     0.3302    -9.946    -3.549    -3.318 -0.0062 -0.0001  1.0000
 
              Baa    -0.3026     9.117     3.253     3.041  0.6756  0.0000  0.7373
     2 Ti(47) Bbb     0.1187    -3.577    -1.276    -1.193  0.7373 -0.0000 -0.6756
              Bcc     0.1839    -5.540    -1.977    -1.848 -0.0000  1.0000 -0.0000
 
              Baa    -0.1266     9.159     3.268     3.055  0.8218 -0.3814 -0.4233
     3 O(17)  Bbb     0.0118    -0.852    -0.304    -0.284  0.4008 -0.1411  0.9052
              Bcc     0.1148    -8.308    -2.964    -2.771  0.4049  0.9136 -0.0369
 
              Baa    -0.1266     9.160     3.269     3.056  0.8217  0.3814 -0.4235
     4 O(17)  Bbb     0.0118    -0.852    -0.304    -0.284  0.4011  0.1410  0.9051
              Bcc     0.1148    -8.308    -2.965    -2.771 -0.4049  0.9136  0.0371
 
              Baa    -0.1291     9.339     3.333     3.115  0.9871 -0.0003 -0.1603
     5 O(17)  Bbb    -0.0035     0.254     0.090     0.085  0.0003  1.0000 -0.0001
              Bcc     0.1326    -9.593    -3.423    -3.200  0.1603  0.0001  0.9871
 
              Baa    -0.1272     9.204     3.284     3.070  0.9761  0.0001  0.2175
     6 O(17)  Bbb     0.0006    -0.045    -0.016    -0.015 -0.0001  1.0000  0.0001
              Bcc     0.1266    -9.159    -3.268    -3.055 -0.2175 -0.0001  0.9761
 
              Baa    -0.0121     0.879     0.314     0.293  0.0002  1.0000 -0.0002
     7 O(17)  Bbb    -0.0078     0.568     0.203     0.189 -0.3901  0.0002  0.9208
              Bcc     0.0200    -1.446    -0.516    -0.482  0.9208 -0.0001  0.3901
 
              Baa    -0.0922     2.779     0.992     0.927  0.9994  0.0066  0.0352
     8 Ti(47) Bbb    -0.0865     2.606     0.930     0.869 -0.0066  1.0000 -0.0004
              Bcc     0.1787    -5.385    -1.922    -1.796 -0.0352  0.0001  0.9994
 
              Baa    -0.0087     0.633     0.226     0.211 -0.1375  0.1346  0.9813
     9 O(17)  Bbb    -0.0056     0.403     0.144     0.134 -0.6509  0.7345 -0.1919
              Bcc     0.0143    -1.036    -0.370    -0.345  0.7466  0.6651  0.0134
 
              Baa    -0.0015    -0.791    -0.282    -0.264  0.0178 -0.0281  0.9994
    10 H(1)   Bbb    -0.0012    -0.666    -0.238    -0.222  0.7389 -0.6730 -0.0321
              Bcc     0.0027     1.457     0.520     0.486  0.6736  0.7391  0.0088
 
              Baa    -0.0088     0.634     0.226     0.211 -0.1364 -0.1337  0.9816
    11 O(17)  Bbb    -0.0055     0.401     0.143     0.134  0.6516  0.7342  0.1906
              Bcc     0.0143    -1.035    -0.369    -0.345  0.7462 -0.6656  0.0131
 
              Baa    -0.0015    -0.791    -0.282    -0.264  0.0179  0.0285  0.9994
    12 H(1)   Bbb    -0.0012    -0.667    -0.238    -0.222  0.7387  0.6732 -0.0324
              Bcc     0.0027     1.458     0.520     0.486 -0.6737  0.7389 -0.0090
 

 ---------------------------------------------------------------------------------


 Test job not archived.
 1\1\GINC-POP-OS\SP\UB3LYP\LANL2DZ\H2O7Ti3(1-,2)\RHEINHEIMER\07-Jun-202
 1\0\\#t B3LYP/LANL2DZ # SCRF=(Solvent=Ethanol) # Gfinput IOP(6/7=3) Po
 p=hirshfeld Density Test # Units(Ang,Deg)\\3-tio2.pdb\\-1,2\Ti,0,0.324
 1,-0.00001,0.0514\Ti,0,3.06784,-0.00001,-0.37437\O,0,1.6575,-1.23235,-
 0.15865\O,0,1.65749,1.23234,-0.15862\O,0,-1.10839,0.00003,1.27492\O,0,
 -1.03497,-0.00001,-1.18611\O,0,3.93824,0.00001,1.02867\Ti,0,-2.45178,0
 .00001,0.02778\O,0,-3.36066,-1.53041,0.00496\H,0,-3.89599,-2.3362,0.00
 702\O,0,-3.36086,1.53028,0.0048\H,0,-3.89444,2.33722,0.00749\\Version=
 ES64L-G16RevA.03\State=2-A\HF=-702.8253605\S2=0.762122\S2-1=0.\S2A=0.7
 50094\RMSD=6.054e-09\Dipole=-0.7058596,0.0012827,-2.4847631\Quadrupole
 =0.4732264,2.6787009,-3.1519273,-0.0019453,-19.4420156,0.0027244\PG=C0
 1 [X(H2O7Ti3)]\\@


 WE SHOULD BE CAREFUL TO GET OUT OF AN EXPERIENCE ONLY THE WISDOM
 THAT IS IN IT -- AND STOP THERE;
 LEST WE BE LIKE THE CAT THAT SITS DOWN ON A HOT STOVE-LID.
 SHE WILL NEVER SIT DOWN ON A HOT STOVE LID AGAIN;
 BUT ALSO SHE WILL NEVER SIT DOWN ON A COLD ONE ANY MORE.

                                                     -- MARK TWAIN
 Job cpu time:       0 days  0 hours  7 minutes  3.2 seconds.
 Elapsed time:       0 days  0 hours  0 minutes 59.7 seconds.
 File lengths (MBytes):  RWF=     58 Int=      0 D2E=      0 Chk=      3 Scr=      1
 Normal termination of Gaussian 16 at Mon Jun  7 11:57:53 2021.
