3-tio2.pdb                                                              
SP        RB3LYP                                                      LANL2DZ             
Number of atoms                            I               12
Info1-9                                    I   N=           9
          27          27           0           0           0         111
           1          18        -502
Full Title                                 C   N=           1
3-tio2.pdb  
Route                                      C   N=          10
#p B3LYP/LANL2DZ # SCRF=(Solvent=Ethanol) # Pop=(Chelp, Read
Radii) # Gfinput IOP(6/7=3) Density Test # Units(Ang,Deg)   
Charge                                     I                0
Multiplicity                               I                1
Number of electrons                        I               94
Number of alpha electrons                  I               47
Number of beta electrons                   I               47
Number of basis functions                  I              133
Number of independent functions            I              133
Number of point charges in /Mol/           I                0
Number of translation vectors              I                0
Atomic numbers                             I   N=          12
          22          22           8           8           8           8
           8          22           8           1           8           1
Nuclear charges                            R   N=          12
  1.20000000E+01  1.20000000E+01  8.00000000E+00  8.00000000E+00  8.00000000E+00
  8.00000000E+00  8.00000000E+00  1.20000000E+01  8.00000000E+00  1.00000000E+00
  8.00000000E+00  1.00000000E+00
Current cartesian coordinates              R   N=          36
  6.12460237E-01 -1.88972612E-05  9.71319228E-02  5.79737739E+00 -1.88972612E-05
 -7.07456769E-01  3.13222105E+00 -2.32880399E+00 -2.99805050E-01  3.13220215E+00
  2.32878509E+00 -2.99748358E-01 -2.09455354E+00  5.66917837E-05  2.40924963E+00
 -1.95580985E+00 -1.88972612E-05 -2.24142305E+00  7.44219501E+00  1.88972612E-05
  1.94390457E+00 -4.63319272E+00  1.88972612E-05  5.24965917E-02 -6.35072700E+00
 -2.89205576E+00  9.37304158E-03 -7.36235408E+00 -4.41477817E+00  1.32658774E-02
 -6.35110494E+00  2.89181009E+00  9.07068540E-03 -7.35942501E+00  4.41670569E+00
  1.41540487E-02
Number of symbols in /Mol/                 I                0
Force Field                                I                0
Atom Types                                 C   N=          12
                                                            
                                                            
                        
Int Atom Types                             I   N=          12
           0           0           0           0           0           0
           0           0           0           0           0           0
MM charges                                 R   N=          12
  0.00000000E+00  0.00000000E+00  0.00000000E+00  0.00000000E+00  0.00000000E+00
  0.00000000E+00  0.00000000E+00  0.00000000E+00  0.00000000E+00  0.00000000E+00
  0.00000000E+00  0.00000000E+00
Integer atomic weights                     I   N=          12
          48          48          16          16          16          16
          16          48          16           1          16           1
Real atomic weights                        R   N=          12
  4.79479467E+01  4.79479467E+01  1.59949146E+01  1.59949146E+01  1.59949146E+01
  1.59949146E+01  1.59949146E+01  4.79479467E+01  1.59949146E+01  1.00782504E+00
  1.59949146E+01  1.00782504E+00
Atom fragment info                         I   N=          12
           0           0           0           0           0           0
           0           0           0           0           0           0
Atom residue num                           I   N=          12
           0           0           0           0           0           0
           0           0           0           0           0           0
Nuclear spins                              I   N=          12
           0           0           0           0           0           0
           0           0           0           1           0           1
Nuclear ZEff                               R   N=          12
 -9.57000000E+00 -9.57000000E+00 -5.60000000E+00 -5.60000000E+00 -5.60000000E+00
 -5.60000000E+00 -5.60000000E+00 -9.57000000E+00 -5.60000000E+00 -1.00000000E+00
 -5.60000000E+00 -1.00000000E+00
Nuclear ZNuc                               R   N=          12
  2.20000000E+01  2.20000000E+01  8.00000000E+00  8.00000000E+00  8.00000000E+00
  8.00000000E+00  8.00000000E+00  2.20000000E+01  8.00000000E+00  1.00000000E+00
  8.00000000E+00  1.00000000E+00
Nuclear QMom                               R   N=          12
  0.00000000E+00  0.00000000E+00  0.00000000E+00  0.00000000E+00  0.00000000E+00
  0.00000000E+00  0.00000000E+00  0.00000000E+00  0.00000000E+00  0.00000000E+00
  0.00000000E+00  0.00000000E+00
Nuclear GFac                               R   N=          12
  0.00000000E+00  0.00000000E+00  0.00000000E+00  0.00000000E+00  0.00000000E+00
  0.00000000E+00  0.00000000E+00  0.00000000E+00  0.00000000E+00  2.79284600E+00
  0.00000000E+00  2.79284600E+00
MicOpt                                     I   N=          12
          -1          -1          -1          -1          -1          -1
          -1          -1          -1          -1          -1          -1
Number of residues                         I                0
Number of secondary structures             I                0
SymInf integers                            I   N=          26
           1           1           1           1           1           0
           0           0           0           0           0           0
           0           0           0           0           0           0
           0           0           0           0           0           0
           0           0
RotTr to input orientation                 R   N=          12
  1.00000000E+00 -1.03470298E-06  0.00000000E+00  1.03470298E-06  1.00000000E+00
  0.00000000E+00  0.00000000E+00  0.00000000E+00  1.00000000E+00 -1.67636995E-06
 -1.21917814E-06  1.37157541E-06
Number of contracted shells                I               63
Number of primitive shells                 I              164
Pure/Cartesian d shells                    I                0
Pure/Cartesian f shells                    I                0
Highest angular momentum                   I                2
Largest degree of contraction              I                7
Shell types                                I   N=          63
           0           0           0           1           1           1
          -2          -2           0           0           0           1
           1           1          -2          -2           0           0
           0           1           1           0           0           0
           1           1           0           0           0           1
           1           0           0           0           1           1
           0           0           0           1           1           0
           0           0           1           1           1          -2
          -2           0           0           0           1           1
           0           0           0           0           0           1
           1           0           0
Number of primitives per shell             I   N=          63
           3           3           1           3           1           1
           4           1           3           3           1           3
           1           1           4           1           7           2
           1           4           1           7           2           1
           4           1           7           2           1           4
           1           7           2           1           4           1
           7           2           1           4           1           3
           3           1           3           1           1           4
           1           7           2           1           4           1
           3           1           7           2           1           4
           1           3           1
Shell to atom map                          I   N=          63
           1           1           1           1           1           1
           1           1           2           2           2           2
           2           2           2           2           3           3
           3           3           3           4           4           4
           4           4           5           5           5           5
           5           6           6           6           6           6
           7           7           7           7           7           8
           8           8           8           8           8           8
           8           9           9           9           9           9
          10          10          11          11          11          11
          11          12          12
Primitive exponents                        R   N=         164
  1.09800000E+00  4.17800000E-01  8.72000000E-02  4.37200000E+00  1.09800000E+00
  4.17800000E-01  3.14000000E-02  1.25200000E+01  1.49100000E+00  4.85900000E-01
  5.30000000E-02  1.60000000E-02  2.02100000E+01  5.49500000E+00  1.69900000E+00
  4.84000000E-01  1.15700000E-01  1.09800000E+00  4.17800000E-01  8.72000000E-02
  4.37200000E+00  1.09800000E+00  4.17800000E-01  3.14000000E-02  1.25200000E+01
  1.49100000E+00  4.85900000E-01  5.30000000E-02  1.60000000E-02  2.02100000E+01
  5.49500000E+00  1.69900000E+00  4.84000000E-01  1.15700000E-01  7.81700000E+03
  1.17600000E+03  2.73200000E+02  8.11700000E+01  2.71800000E+01  9.53200000E+00
  3.41400000E+00  9.53200000E+00  9.39800000E-01  2.84600000E-01  3.51800000E+01
  7.90400000E+00  2.30500000E+00  7.17100000E-01  2.13700000E-01  7.81700000E+03
  1.17600000E+03  2.73200000E+02  8.11700000E+01  2.71800000E+01  9.53200000E+00
  3.41400000E+00  9.53200000E+00  9.39800000E-01  2.84600000E-01  3.51800000E+01
  7.90400000E+00  2.30500000E+00  7.17100000E-01  2.13700000E-01  7.81700000E+03
  1.17600000E+03  2.73200000E+02  8.11700000E+01  2.71800000E+01  9.53200000E+00
  3.41400000E+00  9.53200000E+00  9.39800000E-01  2.84600000E-01  3.51800000E+01
  7.90400000E+00  2.30500000E+00  7.17100000E-01  2.13700000E-01  7.81700000E+03
  1.17600000E+03  2.73200000E+02  8.11700000E+01  2.71800000E+01  9.53200000E+00
  3.41400000E+00  9.53200000E+00  9.39800000E-01  2.84600000E-01  3.51800000E+01
  7.90400000E+00  2.30500000E+00  7.17100000E-01  2.13700000E-01  7.81700000E+03
  1.17600000E+03  2.73200000E+02  8.11700000E+01  2.71800000E+01  9.53200000E+00
  3.41400000E+00  9.53200000E+00  9.39800000E-01  2.84600000E-01  3.51800000E+01
  7.90400000E+00  2.30500000E+00  7.17100000E-01  2.13700000E-01  1.09800000E+00
  4.17800000E-01  8.72000000E-02  4.37200000E+00  1.09800000E+00  4.17800000E-01
  3.14000000E-02  1.25200000E+01  1.49100000E+00  4.85900000E-01  5.30000000E-02
  1.60000000E-02  2.02100000E+01  5.49500000E+00  1.69900000E+00  4.84000000E-01
  1.15700000E-01  7.81700000E+03  1.17600000E+03  2.73200000E+02  8.11700000E+01
  2.71800000E+01  9.53200000E+00  3.41400000E+00  9.53200000E+00  9.39800000E-01
  2.84600000E-01  3.51800000E+01  7.90400000E+00  2.30500000E+00  7.17100000E-01
  2.13700000E-01  1.92406000E+01  2.89920000E+00  6.53400000E-01  1.77600000E-01
  7.81700000E+03  1.17600000E+03  2.73200000E+02  8.11700000E+01  2.71800000E+01
  9.53200000E+00  3.41400000E+00  9.53200000E+00  9.39800000E-01  2.84600000E-01
  3.51800000E+01  7.90400000E+00  2.30500000E+00  7.17100000E-01  2.13700000E-01
  1.92406000E+01  2.89920000E+00  6.53400000E-01  1.77600000E-01
Contraction coefficients                   R   N=         164
 -1.02367699E-01 -3.75317215E-01  1.21542315E+00 -3.63709837E-01  8.18453383E-01
  4.18452642E-01  1.00000000E+00 -4.56908005E-02  6.20331307E-01  4.76532906E-01
  1.00000000E+00  1.00000000E+00  3.41681990E-02  1.71000595E-01  4.40584887E-01
  6.11424582E-01  1.00000000E+00 -1.02367699E-01 -3.75317215E-01  1.21542315E+00
 -3.63709837E-01  8.18453383E-01  4.18452642E-01  1.00000000E+00 -4.56908005E-02
  6.20331307E-01  4.76532906E-01  1.00000000E+00  1.00000000E+00  3.41681990E-02
  1.71000595E-01  4.40584887E-01  6.11424582E-01  1.00000000E+00  1.17600033E-03
  8.96800252E-03  4.28680121E-02  1.43930040E-01  3.55630100E-01  4.61248130E-01
  1.40206039E-01 -1.54153074E-01  1.05691451E+00  1.00000000E+00  1.95800005E-02
  1.24200003E-01  3.94714010E-01  6.27376016E-01  1.00000000E+00  1.17600033E-03
  8.96800252E-03  4.28680121E-02  1.43930040E-01  3.55630100E-01  4.61248130E-01
  1.40206039E-01 -1.54153074E-01  1.05691451E+00  1.00000000E+00  1.95800005E-02
  1.24200003E-01  3.94714010E-01  6.27376016E-01  1.00000000E+00  1.17600033E-03
  8.96800252E-03  4.28680121E-02  1.43930040E-01  3.55630100E-01  4.61248130E-01
  1.40206039E-01 -1.54153074E-01  1.05691451E+00  1.00000000E+00  1.95800005E-02
  1.24200003E-01  3.94714010E-01  6.27376016E-01  1.00000000E+00  1.17600033E-03
  8.96800252E-03  4.28680121E-02  1.43930040E-01  3.55630100E-01  4.61248130E-01
  1.40206039E-01 -1.54153074E-01  1.05691451E+00  1.00000000E+00  1.95800005E-02
  1.24200003E-01  3.94714010E-01  6.27376016E-01  1.00000000E+00  1.17600033E-03
  8.96800252E-03  4.28680121E-02  1.43930040E-01  3.55630100E-01  4.61248130E-01
  1.40206039E-01 -1.54153074E-01  1.05691451E+00  1.00000000E+00  1.95800005E-02
  1.24200003E-01  3.94714010E-01  6.27376016E-01  1.00000000E+00 -1.02367699E-01
 -3.75317215E-01  1.21542315E+00 -3.63709837E-01  8.18453383E-01  4.18452642E-01
  1.00000000E+00 -4.56908005E-02  6.20331307E-01  4.76532906E-01  1.00000000E+00
  1.00000000E+00  3.41681990E-02  1.71000595E-01  4.40584887E-01  6.11424582E-01
  1.00000000E+00  1.17600033E-03  8.96800252E-03  4.28680121E-02  1.43930040E-01
  3.55630100E-01  4.61248130E-01  1.40206039E-01 -1.54153074E-01  1.05691451E+00
  1.00000000E+00  1.95800005E-02  1.24200003E-01  3.94714010E-01  6.27376016E-01
  1.00000000E+00  3.28280770E-02  2.31208542E-01  8.17239916E-01  1.00000000E+00
  1.17600033E-03  8.96800252E-03  4.28680121E-02  1.43930040E-01  3.55630100E-01
  4.61248130E-01  1.40206039E-01 -1.54153074E-01  1.05691451E+00  1.00000000E+00
  1.95800005E-02  1.24200003E-01  3.94714010E-01  6.27376016E-01  1.00000000E+00
  3.28280770E-02  2.31208542E-01  8.17239916E-01  1.00000000E+00
Coordinates of each shell                  R   N=         189
  6.12461913E-01 -1.70443669E-05  9.71305512E-02  6.12461913E-01 -1.70443669E-05
  9.71305512E-02  6.12461913E-01 -1.70443669E-05  9.71305512E-02  6.12461913E-01
 -1.70443669E-05  9.71305512E-02  6.12461913E-01 -1.70443669E-05  9.71305512E-02
  6.12461913E-01 -1.70443669E-05  9.71305512E-02  6.12461913E-01 -1.70443669E-05
  9.71305512E-02  6.12461913E-01 -1.70443669E-05  9.71305512E-02  5.79737907E+00
 -1.16795177E-05 -7.07458141E-01  5.79737907E+00 -1.16795177E-05 -7.07458141E-01
  5.79737907E+00 -1.16795177E-05 -7.07458141E-01  5.79737907E+00 -1.16795177E-05
 -7.07458141E-01  5.79737907E+00 -1.16795177E-05 -7.07458141E-01  5.79737907E+00
 -1.16795177E-05 -7.07458141E-01  5.79737907E+00 -1.16795177E-05 -7.07458141E-01
  5.79737907E+00 -1.16795177E-05 -7.07458141E-01  3.13222514E+00 -2.32879953E+00
 -2.99806421E-01  3.13222514E+00 -2.32879953E+00 -2.99806421E-01  3.13222514E+00
 -2.32879953E+00 -2.99806421E-01  3.13222514E+00 -2.32879953E+00 -2.99806421E-01
  3.13222514E+00 -2.32879953E+00 -2.99806421E-01  3.13220142E+00  2.32878955E+00
 -2.99749729E-01  3.13220142E+00  2.32878955E+00 -2.99749729E-01  3.13220142E+00
  2.32878955E+00 -2.99749729E-01  3.13220142E+00  2.32878955E+00 -2.99749729E-01
  3.13220142E+00  2.32878955E+00 -2.99749729E-01 -2.09455186E+00  5.57437228E-05
  2.40924826E+00 -2.09455186E+00  5.57437228E-05  2.40924826E+00 -2.09455186E+00
  5.57437228E-05  2.40924826E+00 -2.09455186E+00  5.57437228E-05  2.40924826E+00
 -2.09455186E+00  5.57437228E-05  2.40924826E+00 -1.95580817E+00 -1.97017636E-05
 -2.24142443E+00 -1.95580817E+00 -1.97017636E-05 -2.24142443E+00 -1.95580817E+00
 -1.97017636E-05 -2.24142443E+00 -1.95580817E+00 -1.97017636E-05 -2.24142443E+00
 -1.95580817E+00 -1.97017636E-05 -2.24142443E+00  7.44219669E+00  2.78169025E-05
  1.94390320E+00  7.44219669E+00  2.78169025E-05  1.94390320E+00  7.44219669E+00
  2.78169025E-05  1.94390320E+00  7.44219669E+00  2.78169025E-05  1.94390320E+00
  7.44219669E+00  2.78169025E-05  1.94390320E+00 -4.63319104E+00  1.53224628E-05
  5.24952202E-02 -4.63319104E+00  1.53224628E-05  5.24952202E-02 -4.63319104E+00
  1.53224628E-05  5.24952202E-02 -4.63319104E+00  1.53224628E-05  5.24952202E-02
 -4.63319104E+00  1.53224628E-05  5.24952202E-02 -4.63319104E+00  1.53224628E-05
  5.24952202E-02 -4.63319104E+00  1.53224628E-05  5.24952202E-02 -4.63319104E+00
  1.53224628E-05  5.24952202E-02 -6.35072233E+00 -2.89206111E+00  9.37167000E-03
 -6.35072233E+00 -2.89206111E+00  9.37167000E-03 -6.35072233E+00 -2.89206111E+00
  9.37167000E-03 -6.35072233E+00 -2.89206111E+00  9.37167000E-03 -6.35072233E+00
 -2.89206111E+00  9.37167000E-03 -7.36234784E+00 -4.41478457E+00  1.32645058E-02
 -7.36234784E+00 -4.41478457E+00  1.32645058E-02 -6.35110626E+00  2.89180474E+00
  9.06931382E-03 -6.35110626E+00  2.89180474E+00  9.06931382E-03 -6.35110626E+00
  2.89180474E+00  9.06931382E-03 -6.35110626E+00  2.89180474E+00  9.06931382E-03
 -6.35110626E+00  2.89180474E+00  9.06931382E-03 -7.35942790E+00  4.41669930E+00
  1.41526771E-02 -7.35942790E+00  4.41669930E+00  1.41526771E-02
Num ILSW                                   I              100
ILSW                                       I   N=         100
           0           0           0           0           2           0
           0           0           0           0         402          -1
           5           0           0           0           0           0
           0           0           0           0           0           0
           1           0           0           0           0           0
           0           0      100000           0          -1           0
           0           0           0           0           0           0
           0           0           0           1           0           0
           0 -2000000000           1           0           0           0
           0           0           4          52           0           0
           0           0           5           0           0           0
           0           0           0          12           0           1
           0           0           0           0           0           0
           0           0           0           0           0           0
           0           0           0           0           0           0
           0           0           0           0           0           0
           0           0           0           0
Num RLSW                                   I               52
RLSW                                       R   N=          52
  8.00000000E-01  7.20000000E-01  1.00000000E+00  8.10000000E-01  2.00000000E-01
  0.00000000E+00  0.00000000E+00  1.00000000E+00  0.00000000E+00  0.00000000E+00
  0.00000000E+00  0.00000000E+00  1.00000000E+00  0.00000000E+00  0.00000000E+00
  0.00000000E+00  0.00000000E+00  1.00000000E+00  0.00000000E+00  0.00000000E+00
  0.00000000E+00  0.00000000E+00  1.00000000E+00  0.00000000E+00  0.00000000E+00
  0.00000000E+00  0.00000000E+00  1.00000000E+00  0.00000000E+00  0.00000000E+00
  0.00000000E+00  0.00000000E+00  1.00000000E+00  0.00000000E+00  0.00000000E+00
  0.00000000E+00  0.00000000E+00  0.00000000E+00  1.00000000E+00  1.00000000E+00
  0.00000000E+00  1.00000000E+00  0.00000000E+00  0.00000000E+00  0.00000000E+00
  0.00000000E+00  0.00000000E+00  0.00000000E+00  0.00000000E+00  0.00000000E+00
  0.00000000E+00  0.00000000E+00
ECP-MxAtEC                                 I           250000
ECP-MaxLECP                                I               10
ECP-MaxAtL                                 I          2250000
ECP-MxTECP                                 I         11250000
ECP-LenNCZ                                 I               13
ECP-KFirst                                 I   N=         120
           1           1           0           0           0           0
           0           1           0           0           0           0
           4           4           0           0           0           0
           0           4           0           0           0           0
           9           9           0           0           0           0
           0           9           0           0           0           0
           0           0           0           0           0           0
           0           0           0           0           0           0
           0           0           0           0           0           0
           0           0           0           0           0           0
           0           0           0           0           0           0
           0           0           0           0           0           0
           0           0           0           0           0           0
           0           0           0           0           0           0
           0           0           0           0           0           0
           0           0           0           0           0           0
           0           0           0           0           0           0
           0           0           0           0           0           0
           0           0           0           0           0           0
           0           0           0           0           0           0
ECP-KLast                                  I   N=         120
           3           3           0           0           0           0
           0           3           0           0           0           0
           8           8           0           0           0           0
           0           8           0           0           0           0
          13          13           0           0           0           0
           0          13           0           0           0           0
           0           0           0           0           0           0
           0           0           0           0           0           0
           0           0           0           0           0           0
           0           0           0           0           0           0
           0           0           0           0           0           0
           0           0           0           0           0           0
           0           0           0           0           0           0
           0           0           0           0           0           0
           0           0           0           0           0           0
           0           0           0           0           0           0
           0           0           0           0           0           0
           0           0           0           0           0           0
           0           0           0           0           0           0
           0           0           0           0           0           0
ECP-LMax                                   I   N=          12
           2           2           0           0           0           0
           0           2           0           0           0           0
ECP-LPSkip                                 I   N=          12
           0           0           1           1           1           1
           1           0           1           1           1           1
ECP-RNFroz                                 R   N=          12
  1.00000000E+01  1.00000000E+01  0.00000000E+00  0.00000000E+00  0.00000000E+00
  0.00000000E+00  0.00000000E+00  1.00000000E+01  0.00000000E+00  0.00000000E+00
  0.00000000E+00  0.00000000E+00
ECP-NLP                                    I   N=          13
           1           2           2           0           1           2
           2           2           0           1           2           2
           2
ECP-CLP1                                   R   N=          13
 -1.00000000E+01 -5.18427816E+01 -9.14291450E+00  3.00000000E+00  1.94825579E+01
  2.07334928E+02  2.35674450E+02 -1.66878439E+02  5.00000000E+00  5.53488220E+00
  1.77841938E+02  1.07420715E+02 -7.19065902E+01
ECP-CLP2                                   R   N=          13
  0.00000000E+00  0.00000000E+00  0.00000000E+00  0.00000000E+00  0.00000000E+00
  0.00000000E+00  0.00000000E+00  0.00000000E+00  0.00000000E+00  0.00000000E+00
  0.00000000E+00  0.00000000E+00  0.00000000E+00
ECP-ZLP                                    R   N=          13
  2.65326391E+02  4.77687815E+01  1.18903334E+01  8.14730696E+01  7.26496724E+01
  3.18128213E+01  6.16644680E+00  5.82683470E+00  5.02966943E+01  6.35089754E+01
  2.60996084E+01  5.60225730E+00  5.21710690E+00
MxBond                                     I                6
NBond                                      I   N=          12
           6           4           2           2           2           2
           1           5           2           1           2           1
IBond                                      I   N=          72
           2           3           4           5           6           8
           1           3           4           7           0           0
           1           2           0           0           0           0
           1           2           0           0           0           0
           1           8           0           0           0           0
           1           8           0           0           0           0
           2           0           0           0           0           0
           1           5           6           9          11           0
           8          10           0           0           0           0
           9           0           0           0           0           0
           8          12           0           0           0           0
          11           0           0           0           0           0
RBond                                      R   N=          72
  1.00000000E+00  1.00000000E+00  1.00000000E+00  1.00000000E+00  1.00000000E+00
  1.00000000E+00  1.00000000E+00  1.00000000E+00  1.00000000E+00  2.00000000E+00
  0.00000000E+00  0.00000000E+00  1.00000000E+00  1.00000000E+00  0.00000000E+00
  0.00000000E+00  0.00000000E+00  0.00000000E+00  1.00000000E+00  1.00000000E+00
  0.00000000E+00  0.00000000E+00  0.00000000E+00  0.00000000E+00  1.00000000E+00
  1.00000000E+00  0.00000000E+00  0.00000000E+00  0.00000000E+00  0.00000000E+00
  1.00000000E+00  1.00000000E+00  0.00000000E+00  0.00000000E+00  0.00000000E+00
  0.00000000E+00  2.00000000E+00  0.00000000E+00  0.00000000E+00  0.00000000E+00
  0.00000000E+00  0.00000000E+00  1.00000000E+00  1.00000000E+00  1.00000000E+00
  1.00000000E+00  1.00000000E+00  0.00000000E+00  1.00000000E+00  1.00000000E+00
  0.00000000E+00  0.00000000E+00  0.00000000E+00  0.00000000E+00  1.00000000E+00
  0.00000000E+00  0.00000000E+00  0.00000000E+00  0.00000000E+00  0.00000000E+00
  1.00000000E+00  1.00000000E+00  0.00000000E+00  0.00000000E+00  0.00000000E+00
  0.00000000E+00  1.00000000E+00  0.00000000E+00  0.00000000E+00  0.00000000E+00
  0.00000000E+00  0.00000000E+00
Virial Ratio                               R      2.175003126942987E+00
SCF Energy                                 R     -7.027218726133688E+02
Total Energy                               R     -7.027218726133688E+02
RMS Density                                R      9.132311231833119E-10
Job Status                                 I                1
Nuclear derivative order                   I                0
PCM-NSphere                                I               12
PCM-NGenSphere                             I               12
PCM-NOrd                                   I   N=          12
           1           2           3           4           5           6
           7           8           9          10          11          12
PCM-SphereRadii                            R   N=          12
  3.29993425E+00  3.29993425E+00  3.63772279E+00  3.63772279E+00  3.63772279E+00
  3.63772279E+00  3.63772279E+00  3.29993425E+00  3.63772279E+00  2.99956228E+00
  3.63772279E+00  2.99956228E+00
PCM-SphereLoc                              R   N=          36
  6.12460237E-01 -1.88972612E-05  9.71319228E-02  5.79737739E+00 -1.88972612E-05
 -7.07456769E-01  3.13222105E+00 -2.32880399E+00 -2.99805050E-01  3.13220215E+00
  2.32878509E+00 -2.99748358E-01 -2.09455354E+00  5.66917837E-05  2.40924963E+00
 -1.95580985E+00 -1.88972612E-05 -2.24142305E+00  7.44219501E+00  1.88972612E-05
  1.94390457E+00 -4.63319272E+00  1.88972612E-05  5.24965917E-02 -6.35072700E+00
 -2.89205576E+00  9.37304158E-03 -7.36235408E+00 -4.41477817E+00  1.32658774E-02
 -6.35110494E+00  2.89181009E+00  9.07068540E-03 -7.35942501E+00  4.41670569E+00
  1.41540487E-02
External E-field                           R   N=          35
  0.00000000E+00  0.00000000E+00  0.00000000E+00  0.00000000E+00  0.00000000E+00
  0.00000000E+00  0.00000000E+00  0.00000000E+00  0.00000000E+00  0.00000000E+00
  0.00000000E+00  0.00000000E+00  0.00000000E+00  0.00000000E+00  0.00000000E+00
  0.00000000E+00  0.00000000E+00  0.00000000E+00  0.00000000E+00  0.00000000E+00
  0.00000000E+00  0.00000000E+00  0.00000000E+00  0.00000000E+00  0.00000000E+00
  0.00000000E+00  0.00000000E+00  0.00000000E+00  0.00000000E+00  0.00000000E+00
  0.00000000E+00  0.00000000E+00  0.00000000E+00  0.00000000E+00  0.00000000E+00
IOpCl                                      I                0
IROHF                                      I                0
Alpha Orbital Energies                     R   N=         133
 -1.91436119E+01 -1.91435994E+01 -1.91414610E+01 -1.91380894E+01 -1.91380876E+01