 Entering Gaussian System, Link 0=g16
 Input=e-3-tio2_mep.com
 Output=e-3-tio2_mep.log
 Initial command:
 /home/rheinheimer/Apps//g16/l1.exe "/home/rheinheimer/Apps/scrgauss/Gau-304797.inp" -scrdir="/home/rheinheimer/Apps/scrgauss/"
 Entering Link 1 = /home/rheinheimer/Apps//g16/l1.exe PID=    304799.
  
 Copyright (c) 1988,1990,1992,1993,1995,1998,2003,2009,2016,
            Gaussian, Inc.  All Rights Reserved.
  
 This is part of the Gaussian(R) 16 program.  It is based on
 the Gaussian(R) 09 system (copyright 2009, Gaussian, Inc.),
 the Gaussian(R) 03 system (copyright 2003, Gaussian, Inc.),
 the Gaussian(R) 98 system (copyright 1998, Gaussian, Inc.),
 the Gaussian(R) 94 system (copyright 1995, Gaussian, Inc.),
 the Gaussian 92(TM) system (copyright 1992, Gaussian, Inc.),
 the Gaussian 90(TM) system (copyright 1990, Gaussian, Inc.),
 the Gaussian 88(TM) system (copyright 1988, Gaussian, Inc.),
 the Gaussian 86(TM) system (copyright 1986, Carnegie Mellon
 University), and the Gaussian 82(TM) system (copyright 1983,
 Carnegie Mellon University). Gaussian is a federally registered
 trademark of Gaussian, Inc.
  
 This software contains proprietary and confidential information,
 including trade secrets, belonging to Gaussian, Inc.
  
 This software is provided under written license and may be
 used, copied, transmitted, or stored only in accord with that
 written license.
  
 The following legend is applicable only to US Government
 contracts under FAR:
  
                    RESTRICTED RIGHTS LEGEND
  
 Use, reproduction and disclosure by the US Government is
 subject to restrictions as set forth in subparagraphs (a)
 and (c) of the Commercial Computer Software - Restricted
 Rights clause in FAR 52.227-19.
  
 Gaussian, Inc.
 340 Quinnipiac St., Bldg. 40, Wallingford CT 06492
  
  
 ---------------------------------------------------------------
 Warning -- This program may not be used in any manner that
 competes with the business of Gaussian, Inc. or will provide
 assistance to any competitor of Gaussian, Inc.  The licensee
 of this program is prohibited from giving any competitor of
 Gaussian, Inc. access to this program.  By using this program,
 the user acknowledges that Gaussian, Inc. is engaged in the
 business of creating and licensing software in the field of
 computational chemistry and represents and warrants to the
 licensee that it is not a competitor of Gaussian, Inc. and that
 it will not use this program in any manner prohibited above.
 ---------------------------------------------------------------
  

 Cite this work as:
 Gaussian 16, Revision A.03,
 M. J. Frisch, G. W. Trucks, H. B. Schlegel, G. E. Scuseria, 
 M. A. Robb, J. R. Cheeseman, G. Scalmani, V. Barone, 
 G. A. Petersson, H. Nakatsuji, X. Li, M. Caricato, A. V. Marenich, 
 J. Bloino, B. G. Janesko, R. Gomperts, B. Mennucci, H. P. Hratchian, 
 J. V. Ortiz, A. F. Izmaylov, J. L. Sonnenberg, D. Williams-Young, 
 F. Ding, F. Lipparini, F. Egidi, J. Goings, B. Peng, A. Petrone, 
 T. Henderson, D. Ranasinghe, V. G. Zakrzewski, J. Gao, N. Rega, 
 G. Zheng, W. Liang, M. Hada, M. Ehara, K. Toyota, R. Fukuda, 
 J. Hasegawa, M. Ishida, T. Nakajima, Y. Honda, O. Kitao, H. Nakai, 
 T. Vreven, K. Throssell, J. A. Montgomery, Jr., J. E. Peralta, 
 F. Ogliaro, M. J. Bearpark, J. J. Heyd, E. N. Brothers, K. N. Kudin, 
 V. N. Staroverov, T. A. Keith, R. Kobayashi, J. Normand, 
 K. Raghavachari, A. P. Rendell, J. C. Burant, S. S. Iyengar, 
 J. Tomasi, M. Cossi, J. M. Millam, M. Klene, C. Adamo, R. Cammi, 
 J. W. Ochterski, R. L. Martin, K. Morokuma, O. Farkas, 
 J. B. Foresman, and D. J. Fox, Gaussian, Inc., Wallingford CT, 2016.
 
 ******************************************
 Gaussian 16:  ES64L-G16RevA.03 25-Dec-2016
                31-May-2021 
 ******************************************
 %chk=e-3-tio2_mep.chk
 %nproc=8
 Will use up to    8 processors via shared memory.
 %Mem=4GB
 ----------------------------------------------------------------------
 #p B3LYP/LANL2DZ # SCRF=(Solvent=Ethanol) # Pop=(Chelp, ReadRadii) # G
 finput IOP(6/7=3) Density Test # Units(Ang,Deg)
 ----------------------------------------------------------------------
 1/30=1,38=1,172=1/1;
 2/12=2,17=6,18=5,40=1/2;
 3/5=6,6=3,11=2,24=10,25=1,30=1,70=2201,72=4,74=-5/1,2,3;
 4//1;
 5/5=2,38=5,53=4/2;
 6/7=3,8=2,9=2,10=2,15=8,20=102,22=-1,28=1/1,2;
 99/5=1,9=1/99;
 Leave Link    1 at Mon May 31 13:11:36 2021, MaxMem=   536870912 cpu:               0.9 elap:               0.1
 (Enter /home/rheinheimer/Apps//g16/l101.exe)
 ----------
 3-tio2.pdb
 ----------
 Symbolic Z-matrix:
 Charge =  0 Multiplicity = 1
 Ti                   -1   -1.641     1.281    -0.014 
 Ti                   -1    1.10771   1.4132   -0.03946 
 Ti                   -1    3.85641   1.54539  -0.06492 
 O                    -1    2.59825   0.24907   0.2663 
 O                    -1    2.43627   2.63074  -0.53887 
 O                    -1   -0.25649   0.15493   0.47724 
 O                    -1   -0.2814    2.55791  -0.35239 
 O                    -1   -2.55713   2.59863  -0.32145 
 O                    -1    4.7771    0.2363    0.21798 
 
 ITRead=  2  2  2  2  2  2  2  2  2
 MicOpt= -2 -2 -2 -2 -2 -2 -2 -2 -2
 NAtoms=      9 NQM=        0 NQMF=       9 NMMI=      0 NMMIF=      0
                NMic=       0 NMicF=      0.
                    Isotopes and Nuclear Properties:
 (Nuclear quadrupole moments (NQMom) in fm**2, nuclear magnetic moments (NMagM)
  in nuclear magnetons)

  Atom         1           2           3           4           5           6           7           8           9
 IAtWgt=          48          48          48          16          16          16          16          16          16
 AtmWgt=  47.9479467  47.9479467  47.9479467  15.9949146  15.9949146  15.9949146  15.9949146  15.9949146  15.9949146
 NucSpn=           0           0           0           0           0           0           0           0           0
 AtZEff=  -0.0000000  -0.0000000  -0.0000000  -0.0000000  -0.0000000  -0.0000000  -0.0000000  -0.0000000  -0.0000000
 NQMom=    0.0000000   0.0000000   0.0000000   0.0000000   0.0000000   0.0000000   0.0000000   0.0000000   0.0000000
 NMagM=    0.0000000   0.0000000   0.0000000   0.0000000   0.0000000   0.0000000   0.0000000   0.0000000   0.0000000
 AtZNuc=  22.0000000  22.0000000  22.0000000   8.0000000   8.0000000   8.0000000   8.0000000   8.0000000   8.0000000
 Leave Link  101 at Mon May 31 13:11:36 2021, MaxMem=   536870912 cpu:               1.3 elap:               0.2
 (Enter /home/rheinheimer/Apps//g16/l202.exe)
                          Input orientation:                          
 ---------------------------------------------------------------------
 Center     Atomic      Atomic             Coordinates (Angstroms)
 Number     Number       Type             X           Y           Z
 ---------------------------------------------------------------------
      1         22           0       -1.641000    1.281000   -0.014000
      2         22           0        1.107705    1.413196   -0.039460
      3         22           0        3.856410    1.545393   -0.064920
      4          8           0        2.598247    0.249070    0.266297
      5          8           0        2.436267    2.630741   -0.538867
      6          8           0       -0.256494    0.154935    0.477243
      7          8           0       -0.281403    2.557915   -0.352393
      8          8           0       -2.557130    2.598627   -0.321446
      9          8           0        4.777095    0.236304    0.217978
 ---------------------------------------------------------------------
                    Distance matrix (angstroms):
                    1          2          3          4          5
     1  Ti   0.000000
     2  Ti   2.752000   0.000000
     3  Ti   5.504000   2.752000   0.000000
     4  O    4.372031   1.915826   1.836609   0.000000
     5  O    4.326823   1.870000   1.849165   2.519302   0.000000
     6  O    1.851000   1.926459   4.375305   2.864071   3.796453
     7  O    1.895660   1.827000   4.269583   3.742449   2.725034
     8  O    1.634000   3.862094   6.504506   5.695942   4.998231
     9  O    6.506700   3.862094   1.625240   2.179422   3.433019
                    6          7          8          9
     6  O    0.000000
     7  O    2.542288   0.000000
     8  O    3.449994   2.276301   0.000000
     9  O    5.040918   5.594962   7.724144   0.000000
 Stoichiometry    O6Ti3
 Framework group  C1[X(O6Ti3)]
 Deg. of freedom    21
 Full point group                 C1      NOp   1
 Largest Abelian subgroup         C1      NOp   1
 Largest concise Abelian subgroup C1      NOp   1
                         Standard orientation:                         
 ---------------------------------------------------------------------
 Center     Atomic      Atomic             Coordinates (Angstroms)
 Number     Number       Type             X           Y           Z
 ---------------------------------------------------------------------
      1         22           0        2.726994    0.401258   -0.047705
      2         22           0        0.005248   -0.002642    0.001996
      3         22           0       -2.716498   -0.406541    0.051697
      4          8           0       -1.597126    1.046684   -0.039274
      5          8           0       -1.188846   -1.438791   -0.090267
      6          8           0        1.230515    1.480849    0.098021
      7          8           0        1.504924   -1.045720    0.031827
      8          8           0        3.772819   -0.850755    0.045392
      9          8           0       -3.765581    0.829526   -0.062169
 ---------------------------------------------------------------------
 Rotational constants (GHZ):           3.5585257           0.3919366           0.3533754
 Leave Link  202 at Mon May 31 13:11:36 2021, MaxMem=   536870912 cpu:               0.4 elap:               0.1
 (Enter /home/rheinheimer/Apps//g16/l301.exe)
 Standard basis: LANL2DZ (5D, 7F)
 Ernie: Thresh=  0.10000D-02 Tol=  0.10000D-05 Strict=F.
 Ernie:  3 primitive shells out of 144 were deleted.
 AO basis set in the form of general basis input (Overlap normalization):
      1 0
 S   3 1.00       0.000000000000
      0.1098000000D+01 -0.1023676994D+00
      0.4178000000D+00 -0.3753172148D+00
      0.8720000000D-01  0.1215423149D+01
 S   3 1.00       0.000000000000
      0.4372000000D+01 -0.3637098367D+00
      0.1098000000D+01  0.8184533826D+00
      0.4178000000D+00  0.4184526423D+00
 S   1 1.00       0.000000000000
      0.3140000000D-01  0.1000000000D+01
 P   3 1.00       0.000000000000
      0.1252000000D+02 -0.4569080054D-01
      0.1491000000D+01  0.6203313074D+00
      0.4859000000D+00  0.4765329057D+00
 P   1 1.00       0.000000000000
      0.5300000000D-01  0.1000000000D+01
 P   1 1.00       0.000000000000
      0.1600000000D-01  0.1000000000D+01
 D   4 1.00       0.000000000000
      0.2021000000D+02  0.3416819898D-01
      0.5495000000D+01  0.1710005949D+00
      0.1699000000D+01  0.4405848869D+00
      0.4840000000D+00  0.6114245818D+00
 D   1 1.00       0.000000000000
      0.1157000000D+00  0.1000000000D+01
 ****
      2 0
 S   3 1.00       0.000000000000
      0.1098000000D+01 -0.1023676994D+00
      0.4178000000D+00 -0.3753172148D+00
      0.8720000000D-01  0.1215423149D+01
 S   3 1.00       0.000000000000
      0.4372000000D+01 -0.3637098367D+00
      0.1098000000D+01  0.8184533826D+00
      0.4178000000D+00  0.4184526423D+00
 S   1 1.00       0.000000000000
      0.3140000000D-01  0.1000000000D+01
 P   3 1.00       0.000000000000
      0.1252000000D+02 -0.4569080054D-01
      0.1491000000D+01  0.6203313074D+00
      0.4859000000D+00  0.4765329057D+00
 P   1 1.00       0.000000000000
      0.5300000000D-01  0.1000000000D+01
 P   1 1.00       0.000000000000
      0.1600000000D-01  0.1000000000D+01
 D   4 1.00       0.000000000000
      0.2021000000D+02  0.3416819898D-01
      0.5495000000D+01  0.1710005949D+00
      0.1699000000D+01  0.4405848869D+00
      0.4840000000D+00  0.6114245818D+00
 D   1 1.00       0.000000000000
      0.1157000000D+00  0.1000000000D+01
 ****
      3 0
 S   3 1.00       0.000000000000
      0.1098000000D+01 -0.1023676994D+00
      0.4178000000D+00 -0.3753172148D+00
      0.8720000000D-01  0.1215423149D+01
 S   3 1.00       0.000000000000
      0.4372000000D+01 -0.3637098367D+00
      0.1098000000D+01  0.8184533826D+00
      0.4178000000D+00  0.4184526423D+00
 S   1 1.00       0.000000000000
      0.3140000000D-01  0.1000000000D+01
 P   3 1.00       0.000000000000
      0.1252000000D+02 -0.4569080054D-01
      0.1491000000D+01  0.6203313074D+00
      0.4859000000D+00  0.4765329057D+00
 P   1 1.00       0.000000000000
      0.5300000000D-01  0.1000000000D+01
 P   1 1.00       0.000000000000
      0.1600000000D-01  0.1000000000D+01
 D   4 1.00       0.000000000000
      0.2021000000D+02  0.3416819898D-01
      0.5495000000D+01  0.1710005949D+00
      0.1699000000D+01  0.4405848869D+00
      0.4840000000D+00  0.6114245818D+00
 D   1 1.00       0.000000000000
      0.1157000000D+00  0.1000000000D+01
 ****
      4 0
 S   7 1.00       0.000000000000
      0.7817000000D+04  0.1176000331D-02
      0.1176000000D+04  0.8968002523D-02
      0.2732000000D+03  0.4286801206D-01
      0.8117000000D+02  0.1439300405D+00
      0.2718000000D+02  0.3556301000D+00
      0.9532000000D+01  0.4612481297D+00
      0.3414000000D+01  0.1402060394D+00
 S   2 1.00       0.000000000000
      0.9532000000D+01 -0.1541530739D+00
      0.9398000000D+00  0.1056914507D+01
 S   1 1.00       0.000000000000
      0.2846000000D+00  0.1000000000D+01
 P   4 1.00       0.000000000000
      0.3518000000D+02  0.1958000050D-01
      0.7904000000D+01  0.1242000032D+00
      0.2305000000D+01  0.3947140101D+00
      0.7171000000D+00  0.6273760161D+00
 P   1 1.00       0.000000000000
      0.2137000000D+00  0.1000000000D+01
 ****
      5 0
 S   7 1.00       0.000000000000
      0.7817000000D+04  0.1176000331D-02
      0.1176000000D+04  0.8968002523D-02
      0.2732000000D+03  0.4286801206D-01
      0.8117000000D+02  0.1439300405D+00
      0.2718000000D+02  0.3556301000D+00
      0.9532000000D+01  0.4612481297D+00
      0.3414000000D+01  0.1402060394D+00
 S   2 1.00       0.000000000000
      0.9532000000D+01 -0.1541530739D+00
      0.9398000000D+00  0.1056914507D+01
 S   1 1.00       0.000000000000
      0.2846000000D+00  0.1000000000D+01
 P   4 1.00       0.000000000000
      0.3518000000D+02  0.1958000050D-01
      0.7904000000D+01  0.1242000032D+00
      0.2305000000D+01  0.3947140101D+00
      0.7171000000D+00  0.6273760161D+00
 P   1 1.00       0.000000000000
      0.2137000000D+00  0.1000000000D+01
 ****
      6 0
 S   7 1.00       0.000000000000
      0.7817000000D+04  0.1176000331D-02
      0.1176000000D+04  0.8968002523D-02
      0.2732000000D+03  0.4286801206D-01
      0.8117000000D+02  0.1439300405D+00
      0.2718000000D+02  0.3556301000D+00
      0.9532000000D+01  0.4612481297D+00
      0.3414000000D+01  0.1402060394D+00
 S   2 1.00       0.000000000000
      0.9532000000D+01 -0.1541530739D+00
      0.9398000000D+00  0.1056914507D+01
 S   1 1.00       0.000000000000
      0.2846000000D+00  0.1000000000D+01
 P   4 1.00       0.000000000000
      0.3518000000D+02  0.1958000050D-01
      0.7904000000D+01  0.1242000032D+00
      0.2305000000D+01  0.3947140101D+00
      0.7171000000D+00  0.6273760161D+00
 P   1 1.00       0.000000000000
      0.2137000000D+00  0.1000000000D+01
 ****
      7 0
 S   7 1.00       0.000000000000
      0.7817000000D+04  0.1176000331D-02
      0.1176000000D+04  0.8968002523D-02
      0.2732000000D+03  0.4286801206D-01
      0.8117000000D+02  0.1439300405D+00
      0.2718000000D+02  0.3556301000D+00
      0.9532000000D+01  0.4612481297D+00
      0.3414000000D+01  0.1402060394D+00
 S   2 1.00       0.000000000000
      0.9532000000D+01 -0.1541530739D+00
      0.9398000000D+00  0.1056914507D+01
 S   1 1.00       0.000000000000
      0.2846000000D+00  0.1000000000D+01
 P   4 1.00       0.000000000000
      0.3518000000D+02  0.1958000050D-01
      0.7904000000D+01  0.1242000032D+00
      0.2305000000D+01  0.3947140101D+00
      0.7171000000D+00  0.6273760161D+00
 P   1 1.00       0.000000000000
      0.2137000000D+00  0.1000000000D+01
 ****
      8 0
 S   7 1.00       0.000000000000
      0.7817000000D+04  0.1176000331D-02
      0.1176000000D+04  0.8968002523D-02
      0.2732000000D+03  0.4286801206D-01
      0.8117000000D+02  0.1439300405D+00
      0.2718000000D+02  0.3556301000D+00
      0.9532000000D+01  0.4612481297D+00
      0.3414000000D+01  0.1402060394D+00
 S   2 1.00       0.000000000000
      0.9532000000D+01 -0.1541530739D+00
      0.9398000000D+00  0.1056914507D+01
 S   1 1.00       0.000000000000
      0.2846000000D+00  0.1000000000D+01
 P   4 1.00       0.000000000000
      0.3518000000D+02  0.1958000050D-01
      0.7904000000D+01  0.1242000032D+00
      0.2305000000D+01  0.3947140101D+00
      0.7171000000D+00  0.6273760161D+00
 P   1 1.00       0.000000000000
      0.2137000000D+00  0.1000000000D+01
 ****
      9 0
 S   7 1.00       0.000000000000
      0.7817000000D+04  0.1176000331D-02
      0.1176000000D+04  0.8968002523D-02
      0.2732000000D+03  0.4286801206D-01
      0.8117000000D+02  0.1439300405D+00
      0.2718000000D+02  0.3556301000D+00
      0.9532000000D+01  0.4612481297D+00
      0.3414000000D+01  0.1402060394D+00
 S   2 1.00       0.000000000000
      0.9532000000D+01 -0.1541530739D+00
      0.9398000000D+00  0.1056914507D+01
 S   1 1.00       0.000000000000
      0.2846000000D+00  0.1000000000D+01
 P   4 1.00       0.000000000000
      0.3518000000D+02  0.1958000050D-01
      0.7904000000D+01  0.1242000032D+00
      0.2305000000D+01  0.3947140101D+00
      0.7171000000D+00  0.6273760161D+00
 P   1 1.00       0.000000000000
      0.2137000000D+00  0.1000000000D+01
 ****

 Effective core potential in the form of general ECP input:
      1 0
 Ti1-ECP   2 10
 D component
  3
  1      265.3263909      -10.00000000    0.00000000
  2       47.7687815      -51.84278160    0.00000000
  2       11.8903334       -9.14291450    0.00000000
 S-D projection
  5
  0       81.4730696        3.00000000    0.00000000
  1       72.6496724       19.48255790    0.00000000
  2       31.8128213      207.33492790    0.00000000
  2        6.1664468      235.67445010    0.00000000
  2        5.8268347     -166.87843870    0.00000000
 P-D projection
  5
  0       50.2966943        5.00000000    0.00000000
  1       63.5089754        5.53488220    0.00000000
  2       26.0996084      177.84193840    0.00000000
  2        5.6022573      107.42071530    0.00000000
  2        5.2171069      -71.90659020    0.00000000
      2 0
 Ti2-ECP   2 10
 D component
  3
  1      265.3263909      -10.00000000    0.00000000
  2       47.7687815      -51.84278160    0.00000000
  2       11.8903334       -9.14291450    0.00000000
 S-D projection
  5
  0       81.4730696        3.00000000    0.00000000
  1       72.6496724       19.48255790    0.00000000
  2       31.8128213      207.33492790    0.00000000
  2        6.1664468      235.67445010    0.00000000
  2        5.8268347     -166.87843870    0.00000000
 P-D projection
  5
  0       50.2966943        5.00000000    0.00000000
  1       63.5089754        5.53488220    0.00000000
  2       26.0996084      177.84193840    0.00000000
  2        5.6022573      107.42071530    0.00000000
  2        5.2171069      -71.90659020    0.00000000
      3 0
 Ti3-ECP   2 10
 D component
  3
  1      265.3263909      -10.00000000    0.00000000
  2       47.7687815      -51.84278160    0.00000000
  2       11.8903334       -9.14291450    0.00000000
 S-D projection
  5
  0       81.4730696        3.00000000    0.00000000
  1       72.6496724       19.48255790    0.00000000
  2       31.8128213      207.33492790    0.00000000
  2        6.1664468      235.67445010    0.00000000
  2        5.8268347     -166.87843870    0.00000000
 P-D projection
  5
  0       50.2966943        5.00000000    0.00000000
  1       63.5089754        5.53488220    0.00000000
  2       26.0996084      177.84193840    0.00000000
  2        5.6022573      107.42071530    0.00000000
  2        5.2171069      -71.90659020    0.00000000
 
 There are   126 symmetry adapted cartesian basis functions of A   symmetry.
 There are   120 symmetry adapted basis functions of A   symmetry.
   120 basis functions,   306 primitive gaussians,   126 cartesian basis functions
    42 alpha electrons       42 beta electrons
       nuclear repulsion energy       586.5669931727 Hartrees.
 IExCor=  402 DFT=T Ex+Corr=B3LYP ExCW=0 ScaHFX=  0.200000
 ScaDFX=  0.800000  0.720000  1.000000  0.810000 ScalE2=  1.000000  1.000000
 IRadAn=      5 IRanWt=     -1 IRanGd=            0 ICorTp=0 IEmpDi=  4
 NAtoms=    9 NActive=    9 NUniq=    9 SFac= 1.00D+00 NAtFMM=   60 NAOKFM=F Big=F
 Integral buffers will be    131072 words long.
 Raffenetti 2 integral format.
 Two-electron integral symmetry is turned on.
 ------------------------------------------------------------------------------
 Polarizable Continuum Model (PCM)
 =================================
 Model                : PCM.
 Atomic radii         : UFF (Universal Force Field).
 Polarization charges : Total charges.
 Charge compensation  : None.
 Solution method      : On-the-fly selection.
 Cavity type          : Scaled VdW (van der Waals Surface) (Alpha=1.100).
 Cavity algorithm     : GePol (No added spheres)
                        Default sphere list used, NSphG=    9.
                        Lebedev-Laikov grids with approx.  5.0 points / Ang**2.
                        Smoothing algorithm: York/Karplus (Gamma=1.0000).
                        Polarization charges: spherical gaussians, with
                                              point-specific exponents (IZeta= 3).
                        Self-potential: point-specific (ISelfS= 7).
                        Self-field    : sphere-specific E.n sum rule (ISelfD= 2).
 Solvent              : Ethanol, Eps=  24.852000 Eps(inf)=   1.852593
 ------------------------------------------------------------------------------
 Spheres list:
 ISph  on   Nord     Re0    Alpha      Xe            Ye            Ze
    1  Ti      1    1.5875  1.100      2.726994      0.401258     -0.047705
    2  Ti      2    1.5875  1.100      0.005248     -0.002642      0.001996
    3  Ti      3    1.5875  1.100     -2.716498     -0.406541      0.051697
    4   O      4    1.7500  1.100     -1.597126      1.046684     -0.039274
    5   O      5    1.7500  1.100     -1.188846     -1.438791     -0.090267
    6   O      6    1.7500  1.100      1.230515      1.480849      0.098021
    7   O      7    1.7500  1.100      1.504924     -1.045720      0.031827
    8   O      8    1.7500  1.100      3.772819     -0.850755      0.045392
    9   O      9    1.7500  1.100     -3.765581      0.829526     -0.062169
 ------------------------------------------------------------------------------
 GePol: Number of generator spheres                  =       9
 GePol: Total number of spheres                      =       9
 GePol: Number of exposed spheres                    =       9 (100.00%)
 GePol: Number of points                             =    1246
 GePol: Average weight of points                     =       0.14
 GePol: Minimum weight of points                     =   0.18D-07
 GePol: Maximum weight of points                     =    0.21907
 GePol: Number of points with low weight             =      27
 GePol: Fraction of low-weight points (<1% of avg)   =       2.17%
 GePol: Cavity surface area                          =    176.665 Ang**2
 GePol: Cavity volume                                =    158.886 Ang**3
 Leave Link  301 at Mon May 31 13:11:36 2021, MaxMem=   536870912 cpu:               0.5 elap:               0.1
 (Enter /home/rheinheimer/Apps//g16/l302.exe)
 NPDir=0 NMtPBC=     1 NCelOv=     1 NCel=       1 NClECP=     1 NCelD=      1
         NCelK=      1 NCelE2=     1 NClLst=     1 CellRange=     0.0.
 One-electron integrals computed using PRISM.
 One-electron integral symmetry used in STVInt
   1 Symmetry operations used in ECPInt.
 ECPInt:  NShTT=    1485 NPrTT=   10224 LenC2=    1449 LenP2D=    7176.
 LDataN:  DoStor=T MaxTD1= 4 Len=   56
 NBasis=   120 RedAO= T EigKep=  1.61D-03  NBF=   120
 NBsUse=   120 1.00D-06 EigRej= -1.00D+00 NBFU=   120
 Precomputing XC quadrature grid using
 IXCGrd= 4 IRadAn=           5 IRanWt=          -1 IRanGd=           0 AccXCQ= 0.00D+00.
 Generated NRdTot=       0 NPtTot=           0 NUsed=           0 NTot=          32
 NSgBfM=   126   126   126   126   126 MxSgAt=     9 MxSgA2=     9.
 Leave Link  302 at Mon May 31 13:11:37 2021, MaxMem=   536870912 cpu:               4.5 elap:               0.6
 (Enter /home/rheinheimer/Apps//g16/l303.exe)
 DipDrv:  MaxL=1.
 Leave Link  303 at Mon May 31 13:11:37 2021, MaxMem=   536870912 cpu:               0.4 elap:               0.1
 (Enter /home/rheinheimer/Apps//g16/l401.exe)
 ExpMin= 1.60D-02 ExpMax= 7.82D+03 ExpMxC= 2.73D+02 IAcc=3 IRadAn=         5 AccDes= 0.00D+00
 Harris functional with IExCor=  402 and IRadAn=       5 diagonalized for initial guess.
 HarFok:  IExCor=  402 AccDes= 0.00D+00 IRadAn=         5 IDoV= 1 UseB2=F ITyADJ=14
 ICtDFT=  3500011 ScaDFX=  1.000000  1.000000  1.000000  1.000000
 FoFCou: FMM=F IPFlag=           0 FMFlag=      100000 FMFlg1=           0
         NFxFlg=           0 DoJE=T BraDBF=F KetDBF=T FulRan=T
         wScrn=  0.000000 ICntrl=       500 IOpCl=  0 I1Cent=   200000004 NGrid=           0
         NMat0=    1 NMatS0=      1 NMatT0=    0 NMatD0=    1 NMtDS0=    0 NMtDT0=    0
 Petite list used in FoFCou.
 Harris En= -626.510658323464    
 JPrj=0 DoOrth=F DoCkMO=F.
 Leave Link  401 at Mon May 31 13:11:38 2021, MaxMem=   536870912 cpu:               4.5 elap:               0.6
 (Enter /home/rheinheimer/Apps//g16/l502.exe)
 Keep R1 ints in memory in canonical form, NReq=33961285.
 FoFCou: FMM=F IPFlag=           0 FMFlag=           0 FMFlg1=           0
         NFxFlg=           0 DoJE=F BraDBF=F KetDBF=F FulRan=T
         wScrn=  0.000000 ICntrl=       600 IOpCl=  0 I1Cent=           0 NGrid=           0
         NMat0=    1 NMatS0=   7260 NMatT0=    0 NMatD0=    1 NMtDS0=    0 NMtDT0=    0
 Symmetry not used in FoFCou.
 Two-electron integral symmetry not used.
 Closed shell SCF:
 Using DIIS extrapolation, IDIIS=  1040.
 NGot=   536870912 LenX=   510479305 LenY=   510462988
 Requested convergence on RMS density matrix=1.00D-08 within 128 cycles.
 Requested convergence on MAX density matrix=1.00D-06.
 Requested convergence on             energy=1.00D-06.
 No special actions if energy rises.

 Cycle   1  Pass 1  IDiag  1:
 Inv3:  Mode=1 IEnd=     4657548.
 Iteration    1 A*A^-1 deviation from unit magnitude is 3.33D-15 for    550.
 Iteration    1 A*A^-1 deviation from orthogonality  is 1.50D-15 for   1174    105.
 Iteration    1 A^-1*A deviation from unit magnitude is 2.89D-15 for    550.
 Iteration    1 A^-1*A deviation from orthogonality  is 1.40D-15 for   1104    686.
 E= -623.834329164203    
 DIIS: error= 9.87D-02 at cycle   1 NSaved=   1.
 NSaved= 1 IEnMin= 1 EnMin= -623.834329164203     IErMin= 1 ErrMin= 9.87D-02
 ErrMax= 9.87D-02  0.00D+00 EMaxC= 1.00D-01 BMatC= 2.23D+00 BMatP= 2.23D+00
 IDIUse=3 WtCom= 1.34D-02 WtEn= 9.87D-01
 Coeff-Com:  0.100D+01
 Coeff-En:   0.100D+01
 Coeff:      0.100D+01
 Gap=    -0.409 Goal=   None    Shift=    0.000
 GapD=   -0.409 DampG=0.250 DampE=0.250 DampFc=0.1250 IDamp=-1.
 Damping current iteration by 1.25D-01
 RMSDP=3.99D-02 MaxDP=9.38D-01              OVMax= 9.18D-01

 Cycle   2  Pass 1  IDiag  1:
 E= -624.576506153660     Delta-E=       -0.742176989457 Rises=F Damp=T
 DIIS: error= 3.81D-02 at cycle   2 NSaved=   2.
 NSaved= 2 IEnMin= 2 EnMin= -624.576506153660     IErMin= 2 ErrMin= 3.81D-02
 ErrMax= 3.81D-02  0.00D+00 EMaxC= 1.00D-01 BMatC= 4.28D-01 BMatP= 2.23D+00
 IDIUse=3 WtCom= 6.19D-01 WtEn= 3.81D-01
 Coeff-Com: -0.650D+00 0.165D+01
 Coeff-En:   0.997D-01 0.900D+00
 Coeff:     -0.364D+00 0.136D+01
 Gap=     0.029 Goal=   None    Shift=    0.000
 RMSDP=9.93D-03 MaxDP=1.71D-01 DE=-7.42D-01 OVMax= 9.16D-01

 Cycle   3  Pass 1  IDiag  1:
 E= -625.639051363241     Delta-E=       -1.062545209581 Rises=F Damp=F
 DIIS: error= 3.89D-02 at cycle   3 NSaved=   3.
 NSaved= 3 IEnMin= 3 EnMin= -625.639051363241     IErMin= 2 ErrMin= 3.81D-02
 ErrMax= 3.89D-02  0.00D+00 EMaxC= 1.00D-01 BMatC= 2.67D-01 BMatP= 4.28D-01
 IDIUse=3 WtCom= 6.11D-01 WtEn= 3.89D-01
 Coeff-Com: -0.432D+00 0.106D+01 0.370D+00
 Coeff-En:   0.000D+00 0.000D+00 0.100D+01
 Coeff:     -0.264D+00 0.649D+00 0.615D+00
 Gap=     0.159 Goal=   None    Shift=    0.000
 RMSDP=7.32D-03 MaxDP=1.29D-01 DE=-1.06D+00 OVMax= 1.69D-01

 Cycle   4  Pass 1  IDiag  1:
 E= -625.871484541326     Delta-E=       -0.232433178086 Rises=F Damp=F
 DIIS: error= 2.49D-02 at cycle   4 NSaved=   4.
 NSaved= 4 IEnMin= 4 EnMin= -625.871484541326     IErMin= 4 ErrMin= 2.49D-02
 ErrMax= 2.49D-02  0.00D+00 EMaxC= 1.00D-01 BMatC= 1.68D-01 BMatP= 2.67D-01
 IDIUse=3 WtCom= 7.51D-01 WtEn= 2.49D-01
 Coeff-Com: -0.340D+00 0.820D+00 0.358D+00 0.162D+00
 Coeff-En:   0.000D+00 0.000D+00 0.258D+00 0.742D+00
 Coeff:     -0.256D+00 0.616D+00 0.333D+00 0.307D+00
 Gap=     0.144 Goal=   None    Shift=    0.000
 RMSDP=4.18D-03 MaxDP=8.82D-02 DE=-2.32D-01 OVMax= 1.32D-01

 Cycle   5  Pass 1  IDiag  1:
 E= -625.874261016380     Delta-E=       -0.002776475054 Rises=F Damp=F
 DIIS: error= 3.34D-02 at cycle   5 NSaved=   5.
 NSaved= 5 IEnMin= 5 EnMin= -625.874261016380     IErMin= 4 ErrMin= 2.49D-02
 ErrMax= 3.34D-02  0.00D+00 EMaxC= 1.00D-01 BMatC= 1.35D-01 BMatP= 1.68D-01
 IDIUse=3 WtCom= 6.66D-01 WtEn= 3.34D-01
 Coeff-Com: -0.261D+00 0.384D+00 0.536D-01 0.301D+00 0.523D+00
 Coeff-En:   0.000D+00 0.000D+00 0.000D+00 0.496D+00 0.504D+00
 Coeff:     -0.174D+00 0.256D+00 0.357D-01 0.366D+00 0.517D+00
 Gap=     0.118 Goal=   None    Shift=    0.000
 RMSDP=2.24D-03 MaxDP=5.05D-02 DE=-2.78D-03 OVMax= 6.89D-02

 Cycle   6  Pass 1  IDiag  1:
 E= -626.003545978078     Delta-E=       -0.129284961698 Rises=F Damp=F
 DIIS: error= 6.29D-03 at cycle   6 NSaved=   6.
 NSaved= 6 IEnMin= 6 EnMin= -626.003545978078     IErMin= 6 ErrMin= 6.29D-03
 ErrMax= 6.29D-03  0.00D+00 EMaxC= 1.00D-01 BMatC= 1.18D-02 BMatP= 1.35D-01
 IDIUse=3 WtCom= 9.37D-01 WtEn= 6.29D-02
 Coeff-Com: -0.789D-01 0.645D-01-0.660D-01 0.244D+00 0.321D+00 0.515D+00
 Coeff-En:   0.000D+00 0.000D+00 0.000D+00 0.825D-01 0.000D+00 0.918D+00
 Coeff:     -0.740D-01 0.605D-01-0.619D-01 0.234D+00 0.301D+00 0.540D+00
 Gap=     0.119 Goal=   None    Shift=    0.000
 RMSDP=8.64D-04 MaxDP=2.40D-02 DE=-1.29D-01 OVMax= 2.47D-02

 Cycle   7  Pass 1  IDiag  1:
 E= -626.011355556286     Delta-E=       -0.007809578208 Rises=F Damp=F
 DIIS: error= 5.90D-03 at cycle   7 NSaved=   7.
 NSaved= 7 IEnMin= 7 EnMin= -626.011355556286     IErMin= 7 ErrMin= 5.90D-03
 ErrMax= 5.90D-03  0.00D+00 EMaxC= 1.00D-01 BMatC= 2.82D-03 BMatP= 1.18D-02
 IDIUse=3 WtCom= 9.41D-01 WtEn= 5.90D-02
 Coeff-Com: -0.243D-02 0.179D-02-0.393D-01 0.490D-01-0.307D-01 0.413D+00
 Coeff-Com:  0.608D+00
 Coeff-En:   0.000D+00 0.000D+00 0.000D+00 0.000D+00 0.000D+00 0.164D+00
 Coeff-En:   0.836D+00
 Coeff:     -0.229D-02 0.168D-02-0.370D-01 0.461D-01-0.289D-01 0.399D+00
 Coeff:      0.622D+00
 Gap=     0.115 Goal=   None    Shift=    0.000
 RMSDP=4.06D-04 MaxDP=9.48D-03 DE=-7.81D-03 OVMax= 1.34D-02

 Cycle   8  Pass 1  IDiag  1:
 E= -626.013989975285     Delta-E=       -0.002634418999 Rises=F Damp=F
 DIIS: error= 9.55D-04 at cycle   8 NSaved=   8.
 NSaved= 8 IEnMin= 8 EnMin= -626.013989975285     IErMin= 8 ErrMin= 9.55D-04
 ErrMax= 9.55D-04  0.00D+00 EMaxC= 1.00D-01 BMatC= 2.59D-04 BMatP= 2.82D-03
 IDIUse=3 WtCom= 9.90D-01 WtEn= 9.55D-03
 Coeff-Com:  0.503D-02-0.509D-02-0.237D-01 0.208D-01-0.396D-01 0.263D+00
 Coeff-Com:  0.446D+00 0.334D+00
 Coeff-En:   0.000D+00 0.000D+00 0.000D+00 0.000D+00 0.000D+00 0.000D+00
 Coeff-En:   0.677D-01 0.932D+00
 Coeff:      0.498D-02-0.504D-02-0.234D-01 0.206D-01-0.392D-01 0.260D+00
 Coeff:      0.442D+00 0.340D+00
 Gap=     0.116 Goal=   None    Shift=    0.000
 RMSDP=1.24D-04 MaxDP=2.37D-03 DE=-2.63D-03 OVMax= 3.93D-03

 Cycle   9  Pass 1  IDiag  1:
 E= -626.014238270206     Delta-E=       -0.000248294921 Rises=F Damp=F
 DIIS: error= 3.80D-04 at cycle   9 NSaved=   9.
 NSaved= 9 IEnMin= 9 EnMin= -626.014238270206     IErMin= 9 ErrMin= 3.80D-04
 ErrMax= 3.80D-04  0.00D+00 EMaxC= 1.00D-01 BMatC= 2.67D-05 BMatP= 2.59D-04
 IDIUse=3 WtCom= 9.96D-01 WtEn= 3.80D-03
 Coeff-Com:  0.369D-02-0.507D-02-0.654D-02 0.105D-01-0.407D-02 0.764D-01
 Coeff-Com:  0.124D+00 0.174D+00 0.627D+00
 Coeff-En:   0.000D+00 0.000D+00 0.000D+00 0.000D+00 0.000D+00 0.000D+00
 Coeff-En:   0.000D+00 0.000D+00 0.100D+01
 Coeff:      0.368D-02-0.505D-02-0.652D-02 0.104D-01-0.405D-02 0.761D-01
 Coeff:      0.124D+00 0.173D+00 0.629D+00
 Gap=     0.116 Goal=   None    Shift=    0.000
 RMSDP=3.45D-05 MaxDP=1.02D-03 DE=-2.48D-04 OVMax= 1.20D-03

 Cycle  10  Pass 1  IDiag  1:
 E= -626.014227944799     Delta-E=        0.000010325407 Rises=F Damp=F
 DIIS: error= 5.63D-04 at cycle  10 NSaved=  10.
 NSaved=10 IEnMin= 9 EnMin= -626.014238270206     IErMin= 9 ErrMin= 3.80D-04
 ErrMax= 5.63D-04  0.00D+00 EMaxC= 1.00D-01 BMatC= 3.81D-05 BMatP= 2.67D-05
 IDIUse=3 WtCom= 9.96D-01 WtEn= 3.80D-03
 Coeff-Com:  0.296D-02-0.469D-02-0.320D-02 0.880D-02 0.459D-02 0.386D-01
 Coeff-Com:  0.594D-01 0.109D+00 0.542D+00 0.242D+00
 Coeff-En:   0.000D+00 0.000D+00 0.000D+00 0.000D+00 0.000D+00 0.000D+00
 Coeff-En:   0.000D+00 0.000D+00 0.713D+00 0.287D+00
 Coeff:      0.295D-02-0.467D-02-0.318D-02 0.877D-02 0.457D-02 0.385D-01
 Coeff:      0.592D-01 0.109D+00 0.543D+00 0.242D+00
 Gap=     0.116 Goal=   None    Shift=    0.000
 RMSDP=2.21D-05 MaxDP=5.83D-04 DE= 1.03D-05 OVMax= 6.86D-04

 Cycle  11  Pass 1  IDiag  1:
 E= -626.014242762294     Delta-E=       -0.000014817495 Rises=F Damp=F
 DIIS: error= 4.36D-04 at cycle  11 NSaved=  11.
 NSaved=11 IEnMin=11 EnMin= -626.014242762294     IErMin= 9 ErrMin= 3.80D-04
 ErrMax= 4.36D-04  0.00D+00 EMaxC= 1.00D-01 BMatC= 2.15D-05 BMatP= 2.67D-05
 IDIUse=3 WtCom= 9.96D-01 WtEn= 3.80D-03
 Coeff-Com:  0.208D-02-0.403D-02-0.189D-02 0.755D-02 0.868D-02 0.225D-01
 Coeff-Com:  0.367D-01 0.237D-01 0.669D-01 0.702D-01 0.768D+00
 Coeff-En:   0.000D+00 0.000D+00 0.000D+00 0.000D+00 0.000D+00 0.000D+00
 Coeff-En:   0.000D+00 0.000D+00 0.687D-01 0.000D+00 0.931D+00
 Coeff:      0.207D-02-0.401D-02-0.188D-02 0.752D-02 0.865D-02 0.224D-01
 Coeff:      0.365D-01 0.236D-01 0.669D-01 0.700D-01 0.768D+00
 Gap=     0.116 Goal=   None    Shift=    0.000
 RMSDP=6.14D-06 MaxDP=1.25D-04 DE=-1.48D-05 OVMax= 1.76D-04

 Cycle  12  Pass 1  IDiag  1:
 E= -626.014249330459     Delta-E=       -0.000006568165 Rises=F Damp=F
 DIIS: error= 3.75D-04 at cycle  12 NSaved=  12.
 NSaved=12 IEnMin=12 EnMin= -626.014249330459     IErMin=12 ErrMin= 3.75D-04
 ErrMax= 3.75D-04  0.00D+00 EMaxC= 1.00D-01 BMatC= 1.50D-05 BMatP= 2.15D-05
 IDIUse=3 WtCom= 9.96D-01 WtEn= 3.75D-03
 Coeff-Com:  0.139D-02-0.285D-02-0.142D-02 0.537D-02 0.705D-02 0.173D-01
 Coeff-Com:  0.338D-01-0.511D-02-0.157D+00-0.843D-01 0.214D+00 0.972D+00
 Coeff-En:   0.000D+00 0.000D+00 0.000D+00 0.000D+00 0.000D+00 0.000D+00
 Coeff-En:   0.000D+00 0.000D+00 0.000D+00 0.000D+00 0.000D+00 0.100D+01
 Coeff:      0.139D-02-0.284D-02-0.142D-02 0.535D-02 0.702D-02 0.173D-01
 Coeff:      0.337D-01-0.509D-02-0.157D+00-0.840D-01 0.213D+00 0.973D+00
 Gap=     0.116 Goal=   None    Shift=    0.000
 RMSDP=8.47D-06 MaxDP=1.89D-04 DE=-6.57D-06 OVMax= 2.36D-04

 Cycle  13  Pass 1  IDiag  1:
 E= -626.014256864762     Delta-E=       -0.000007534303 Rises=F Damp=F
 DIIS: error= 2.73D-04 at cycle  13 NSaved=  13.
 NSaved=13 IEnMin=13 EnMin= -626.014256864762     IErMin=13 ErrMin= 2.73D-04
 ErrMax= 2.73D-04  0.00D+00 EMaxC= 1.00D-01 BMatC= 7.54D-06 BMatP= 1.50D-05
 IDIUse=3 WtCom= 9.97D-01 WtEn= 2.73D-03
 Coeff-Com:  0.334D-03-0.616D-03-0.777D-03 0.101D-02 0.155D-02 0.103D-01
 Coeff-Com:  0.291D-01-0.207D-01-0.313D+00-0.229D+00-0.830D+00 0.155D+01
 Coeff-Com:  0.808D+00
 Coeff-En:   0.000D+00 0.000D+00 0.000D+00 0.000D+00 0.000D+00 0.000D+00
 Coeff-En:   0.000D+00 0.000D+00 0.000D+00 0.000D+00 0.000D+00 0.000D+00
 Coeff-En:   0.100D+01
 Coeff:      0.333D-03-0.615D-03-0.775D-03 0.101D-02 0.155D-02 0.103D-01
 Coeff:      0.290D-01-0.207D-01-0.312D+00-0.229D+00-0.828D+00 0.154D+01
 Coeff:      0.808D+00
 Gap=     0.117 Goal=   None    Shift=    0.000
 RMSDP=1.37D-05 MaxDP=3.46D-04 DE=-7.53D-06 OVMax= 4.23D-04

 Cycle  14  Pass 1  IDiag  1:
 E= -626.014264042074     Delta-E=       -0.000007177313 Rises=F Damp=F
 DIIS: error= 5.06D-05 at cycle  14 NSaved=  14.
 NSaved=14 IEnMin=14 EnMin= -626.014264042074     IErMin=14 ErrMin= 5.06D-05
 ErrMax= 5.06D-05  0.00D+00 EMaxC= 1.00D-01 BMatC= 3.53D-07 BMatP= 7.54D-06
 IDIUse=1 WtCom= 1.00D+00 WtEn= 0.00D+00
 Coeff-Com:  0.114D-03-0.182D-03-0.455D-03 0.227D-03 0.357D-03 0.554D-02
 Coeff-Com:  0.159D-01-0.742D-02-0.151D+00-0.111D+00-0.538D+00 0.733D+00
 Coeff-Com:  0.497D+00 0.556D+00
 Coeff:      0.114D-03-0.182D-03-0.455D-03 0.227D-03 0.357D-03 0.554D-02
 Coeff:      0.159D-01-0.742D-02-0.151D+00-0.111D+00-0.538D+00 0.733D+00
 Coeff:      0.497D+00 0.556D+00
 Gap=     0.117 Goal=   None    Shift=    0.000
 RMSDP=3.29D-06 MaxDP=8.44D-05 DE=-7.18D-06 OVMax= 9.64D-05

 Cycle  15  Pass 1  IDiag  1:
 E= -626.014264374282     Delta-E=       -0.000000332208 Rises=F Damp=F
 DIIS: error= 1.78D-05 at cycle  15 NSaved=  15.
 NSaved=15 IEnMin=15 EnMin= -626.014264374282     IErMin=15 ErrMin= 1.78D-05
 ErrMax= 1.78D-05  0.00D+00 EMaxC= 1.00D-01 BMatC= 2.92D-08 BMatP= 3.53D-07
 IDIUse=1 WtCom= 1.00D+00 WtEn= 0.00D+00
 Coeff-Com:  0.697D-05-0.301D-05-0.686D-04 0.293D-04 0.195D-04 0.443D-03
 Coeff-Com:  0.776D-03 0.347D-02 0.234D-01 0.106D-01 0.372D-02-0.985D-01
 Coeff-Com: -0.137D-01 0.190D+00 0.879D+00
 Coeff:      0.697D-05-0.301D-05-0.686D-04 0.293D-04 0.195D-04 0.443D-03
 Coeff:      0.776D-03 0.347D-02 0.234D-01 0.106D-01 0.372D-02-0.985D-01
 Coeff:     -0.137D-01 0.190D+00 0.879D+00
 Gap=     0.117 Goal=   None    Shift=    0.000
 RMSDP=1.34D-06 MaxDP=2.91D-05 DE=-3.32D-07 OVMax= 5.50D-05

 Cycle  16  Pass 1  IDiag  1:
 E= -626.014264405386     Delta-E=       -0.000000031104 Rises=F Damp=F
 DIIS: error= 7.30D-07 at cycle  16 NSaved=  16.
 NSaved=16 IEnMin=16 EnMin= -626.014264405386     IErMin=16 ErrMin= 7.30D-07
 ErrMax= 7.30D-07  0.00D+00 EMaxC= 1.00D-01 BMatC= 1.83D-10 BMatP= 2.92D-08
 IDIUse=1 WtCom= 1.00D+00 WtEn= 0.00D+00
 Coeff-Com:  0.295D-05-0.113D-05-0.217D-04 0.229D-04-0.431D-05 0.111D-03
 Coeff-Com:  0.822D-04 0.173D-02 0.132D-01 0.685D-02 0.118D-01-0.577D-01
 Coeff-Com: -0.157D-01 0.755D-01 0.393D+00 0.572D+00
 Coeff:      0.295D-05-0.113D-05-0.217D-04 0.229D-04-0.431D-05 0.111D-03
 Coeff:      0.822D-04 0.173D-02 0.132D-01 0.685D-02 0.118D-01-0.577D-01
 Coeff:     -0.157D-01 0.755D-01 0.393D+00 0.572D+00
 Gap=     0.117 Goal=   None    Shift=    0.000
 RMSDP=1.54D-07 MaxDP=4.05D-06 DE=-3.11D-08 OVMax= 5.93D-06

 Cycle  17  Pass 1  IDiag  1:
 E= -626.014264405454     Delta-E=       -0.000000000068 Rises=F Damp=F
 DIIS: error= 1.10D-06 at cycle  17 NSaved=  17.
 NSaved=17 IEnMin=17 EnMin= -626.014264405454     IErMin=16 ErrMin= 7.30D-07
 ErrMax= 1.10D-06  0.00D+00 EMaxC= 1.00D-01 BMatC= 1.73D-10 BMatP= 1.83D-10
 IDIUse=1 WtCom= 1.00D+00 WtEn= 0.00D+00
 Coeff-Com:  0.108D-05-0.325D-05 0.142D-04 0.147D-04-0.181D-04-0.120D-03
 Coeff-Com: -0.350D-03-0.629D-04 0.120D-02 0.157D-02 0.112D-01-0.773D-02
 Coeff-Com: -0.982D-02-0.253D-01-0.688D-01 0.613D+00 0.485D+00
 Coeff:      0.108D-05-0.325D-05 0.142D-04 0.147D-04-0.181D-04-0.120D-03
 Coeff:     -0.350D-03-0.629D-04 0.120D-02 0.157D-02 0.112D-01-0.773D-02
 Coeff:     -0.982D-02-0.253D-01-0.688D-01 0.613D+00 0.485D+00
 Gap=     0.117 Goal=   None    Shift=    0.000
 RMSDP=1.12D-07 MaxDP=3.07D-06 DE=-6.81D-11 OVMax= 4.33D-06

 Cycle  18  Pass 1  IDiag  1:
 E= -626.014264405616     Delta-E=       -0.000000000162 Rises=F Damp=F
 DIIS: error= 2.12D-07 at cycle  18 NSaved=  18.
 NSaved=18 IEnMin=18 EnMin= -626.014264405616     IErMin=18 ErrMin= 2.12D-07
 ErrMax= 2.12D-07  0.00D+00 EMaxC= 1.00D-01 BMatC= 7.25D-12 BMatP= 1.73D-10
 IDIUse=1 WtCom= 1.00D+00 WtEn= 0.00D+00
 Coeff-Com: -0.591D-07-0.351D-07 0.203D-05-0.160D-06-0.258D-05-0.102D-04
 Coeff-Com: -0.689D-04-0.924D-04-0.385D-03-0.109D-03 0.537D-03 0.882D-03
 Coeff-Com: -0.444D-03-0.654D-02-0.252D-01 0.887D-03 0.239D-01 0.101D+01
 Coeff:     -0.591D-07-0.351D-07 0.203D-05-0.160D-06-0.258D-05-0.102D-04
 Coeff:     -0.689D-04-0.924D-04-0.385D-03-0.109D-03 0.537D-03 0.882D-03
 Coeff:     -0.444D-03-0.654D-02-0.252D-01 0.887D-03 0.239D-01 0.101D+01
 Gap=     0.117 Goal=   None    Shift=    0.000
 RMSDP=3.04D-08 MaxDP=8.34D-07 DE=-1.62D-10 OVMax= 1.44D-06

 Cycle  19  Pass 1  IDiag  1:
 E= -626.014264405623     Delta-E=       -0.000000000006 Rises=F Damp=F
 DIIS: error= 1.77D-08 at cycle  19 NSaved=  19.
 NSaved=19 IEnMin=19 EnMin= -626.014264405623     IErMin=19 ErrMin= 1.77D-08
 ErrMax= 1.77D-08  0.00D+00 EMaxC= 1.00D-01 BMatC= 5.05D-14 BMatP= 7.25D-12
 IDIUse=1 WtCom= 1.00D+00 WtEn= 0.00D+00
 Coeff-Com: -0.287D-07 0.820D-07-0.419D-06-0.869D-06 0.772D-06 0.480D-05
 Coeff-Com:  0.279D-05-0.182D-04-0.159D-03-0.111D-03-0.513D-03 0.688D-03
 Coeff-Com:  0.451D-03-0.144D-03-0.182D-02-0.343D-01-0.215D-01 0.224D+00
 Coeff-Com:  0.833D+00
 Coeff:     -0.287D-07 0.820D-07-0.419D-06-0.869D-06 0.772D-06 0.480D-05
 Coeff:      0.279D-05-0.182D-04-0.159D-03-0.111D-03-0.513D-03 0.688D-03
 Coeff:      0.451D-03-0.144D-03-0.182D-02-0.343D-01-0.215D-01 0.224D+00
 Coeff:      0.833D+00
 Gap=     0.117 Goal=   None    Shift=    0.000
 RMSDP=4.76D-09 MaxDP=1.29D-07 DE=-6.48D-12 OVMax= 2.19D-07

 Error on total polarization charges =  0.03474
 SCF Done:  E(RB3LYP) =  -626.014264406     A.U. after   19 cycles
            NFock= 19  Conv=0.48D-08     -V/T= 2.1975
 KE= 5.227760829096D+02 PE=-2.606969739104D+03 EE= 8.716123986156D+02
 Leave Link  502 at Mon May 31 13:11:59 2021, MaxMem=   536870912 cpu:             158.6 elap:              21.7
 (Enter /home/rheinheimer/Apps//g16/l601.exe)
 Copying SCF densities to generalized density rwf, IOpCl= 0 IROHF=0.

 **********************************************************************

            Population analysis using the SCF density.

 **********************************************************************

 Orbital symmetries:
       Occupied  (A) (A) (A) (A) (A) (A) (A) (A) (A) (A) (A) (A)
                 (A) (A) (A) (A) (A) (A) (A) (A) (A) (A) (A) (A)
                 (A) (A) (A) (A) (A) (A) (A) (A) (A) (A) (A) (A)
                 (A) (A) (A) (A) (A) (A)
       Virtual   (A) (A) (A) (A) (A) (A) (A) (A) (A) (A) (A) (A)
                 (A) (A) (A) (A) (A) (A) (A) (A) (A) (A) (A) (A)
                 (A) (A) (A) (A) (A) (A) (A) (A) (A) (A) (A) (A)
                 (A) (A) (A) (A) (A) (A) (A) (A) (A) (A) (A) (A)
                 (A) (A) (A) (A) (A) (A) (A) (A) (A) (A) (A) (A)
                 (A) (A) (A) (A) (A) (A) (A) (A) (A) (A) (A) (A)
                 (A) (A) (A) (A) (A) (A)
 The electronic state is 1-A.
 Alpha  occ. eigenvalues --  -19.11458 -19.10277 -19.10260 -19.10135 -19.09778
 Alpha  occ. eigenvalues --  -19.08920  -2.45960  -2.44192  -2.42862  -1.58989
 Alpha  occ. eigenvalues --   -1.57860  -1.57332  -1.56810  -1.56226  -1.56114
 Alpha  occ. eigenvalues --   -1.55809  -1.55033  -1.54733  -0.91129  -0.89623
 Alpha  occ. eigenvalues --   -0.88791  -0.87644  -0.84333  -0.83608  -0.39753
 Alpha  occ. eigenvalues --   -0.38287  -0.37951  -0.36910  -0.35510  -0.34895
 Alpha  occ. eigenvalues --   -0.34193  -0.32989  -0.32618  -0.32572  -0.32283
 Alpha  occ. eigenvalues --   -0.29122  -0.27917  -0.27160  -0.26669  -0.26203
 Alpha  occ. eigenvalues --   -0.25791  -0.22933
 Alpha virt. eigenvalues --   -0.11268  -0.09658  -0.08934  -0.08189  -0.07731
 Alpha virt. eigenvalues --   -0.07394  -0.05447  -0.04734  -0.02364  -0.01948
 Alpha virt. eigenvalues --   -0.01450  -0.01316  -0.01029  -0.00486   0.01076
 Alpha virt. eigenvalues --    0.01244   0.02100   0.02224   0.02552   0.02914
 Alpha virt. eigenvalues --    0.04535   0.04637   0.05248   0.07515   0.09033
 Alpha virt. eigenvalues --    0.09680   0.10897   0.11797   0.12294   0.13204
 Alpha virt. eigenvalues --    0.14939   0.15554   0.15996   0.19038   0.19769
 Alpha virt. eigenvalues --    0.24448   0.31614   0.31911   0.33614   0.33742
 Alpha virt. eigenvalues --    0.34383   0.35122   0.36305   0.37338   0.39856
 Alpha virt. eigenvalues --    0.42284   0.42400   0.45905   0.48523   0.50035
 Alpha virt. eigenvalues --    0.54101   0.68840   0.72343   0.74959   0.75568
 Alpha virt. eigenvalues --    0.76958   0.79319   0.80086   0.81042   0.83754
 Alpha virt. eigenvalues --    0.85184   0.89194   0.89704   0.90776   0.91443
 Alpha virt. eigenvalues --    0.98287   1.05705   1.05944   1.08166   1.35720
 Alpha virt. eigenvalues --    1.40810   1.54996   1.70116   1.74063   1.94767
 Alpha virt. eigenvalues --    4.14531   9.47088  15.41507
     Molecular Orbital Coefficients:
                           1         2         3         4         5
                           O         O         O         O         O
     Eigenvalues --   -19.11458 -19.10277 -19.10260 -19.10135 -19.09778
   1 1   Ti 1S          0.00019   0.00027  -0.00033   0.00075   0.00172
   2        2S          0.00000   0.00005  -0.00012   0.00020   0.00065
   3        3S         -0.00025   0.00076   0.00118  -0.00075  -0.00077
   4        4PX        -0.00011   0.00004   0.00000  -0.00011   0.00019
   5        4PY        -0.00012   0.00001  -0.00000   0.00008  -0.00018
   6        4PZ         0.00001   0.00000  -0.00000   0.00002   0.00003
   7        5PX        -0.00027  -0.00049  -0.00052  -0.00003   0.00076
   8        5PY         0.00004   0.00045  -0.00061   0.00009  -0.00012
   9        5PZ         0.00001   0.00000  -0.00003   0.00002   0.00008
  10        6PX         0.00017  -0.00008  -0.00006   0.00012  -0.00019
  11        6PY        -0.00006  -0.00006   0.00004   0.00006   0.00014
  12        6PZ         0.00000  -0.00001   0.00001  -0.00001  -0.00004
  13        7D 0       -0.00006  -0.00002   0.00001  -0.00008  -0.00003
  14        7D+1       -0.00001  -0.00000  -0.00001  -0.00002  -0.00000
  15        7D-1       -0.00001  -0.00000   0.00000   0.00001   0.00000
  16        7D+2       -0.00004  -0.00003  -0.00001   0.00003   0.00002
  17        7D-2        0.00013   0.00002  -0.00002  -0.00015  -0.00006
  18        8D 0       -0.00028  -0.00007   0.00013  -0.00044  -0.00054
  19        8D+1       -0.00002   0.00001   0.00003  -0.00006   0.00001
  20        8D-1        0.00000   0.00002  -0.00003   0.00006   0.00000
  21        8D+2        0.00017   0.00022  -0.00005   0.00016   0.00010
  22        8D-2       -0.00001  -0.00043   0.00064  -0.00059  -0.00137
  23 2   Ti 1S          0.00127   0.00126   0.00128   0.00129  -0.00024
  24        2S          0.00033   0.00029   0.00029   0.00028  -0.00005
  25        3S         -0.00058  -0.00049  -0.00050  -0.00047   0.00017
  26        4PX         0.00015  -0.00009  -0.00008   0.00005   0.00000
  27        4PY        -0.00012   0.00008  -0.00012   0.00009  -0.00003
  28        4PZ         0.00000  -0.00000  -0.00001   0.00001   0.00000
  29        5PX         0.00126  -0.00127  -0.00143   0.00144   0.00046
  30        5PY         0.00001  -0.00004  -0.00010   0.00013  -0.00023
  31        5PZ        -0.00000   0.00000   0.00001  -0.00001  -0.00004
  32        6PX        -0.00001  -0.00000  -0.00023   0.00025   0.00025
  33        6PY         0.00022  -0.00020   0.00010  -0.00010   0.00004
  34        6PZ        -0.00002   0.00002   0.00002  -0.00002   0.00002
  35        7D 0       -0.00008  -0.00009  -0.00008  -0.00008  -0.00000
  36        7D+1        0.00000   0.00000   0.00001   0.00001  -0.00000
  37        7D-1       -0.00001  -0.00001   0.00001   0.00001  -0.00000
  38        7D+2        0.00003   0.00004  -0.00004  -0.00004   0.00001
  39        7D-2       -0.00012  -0.00013   0.00012   0.00012  -0.00001
  40        8D 0       -0.00059  -0.00061  -0.00062  -0.00062   0.00016
  41        8D+1        0.00003   0.00004   0.00009   0.00009  -0.00001
  42        8D-1       -0.00004  -0.00005   0.00009   0.00010  -0.00004
  43        8D+2        0.00078   0.00082  -0.00017  -0.00020   0.00006
  44        8D-2       -0.00173  -0.00175   0.00160   0.00156  -0.00085
  45 3   Ti 1S          0.00030   0.00015   0.00074  -0.00031   0.00024
  46        2S          0.00007   0.00002   0.00019  -0.00013   0.00008
  47        3S          0.00077  -0.00031  -0.00070   0.00119   0.00029
  48        4PX        -0.00003   0.00013   0.00012  -0.00001  -0.00000
  49        4PY        -0.00001   0.00014  -0.00007   0.00000  -0.00000
  50        4PZ        -0.00000  -0.00001  -0.00002   0.00001  -0.00000
  51        5PX         0.00052   0.00020   0.00007   0.00054   0.00024
  52        5PY        -0.00045  -0.00003  -0.00006   0.00058  -0.00011
  53        5PZ        -0.00000  -0.00001  -0.00002   0.00003   0.00000
  54        6PX         0.00008  -0.00017  -0.00012   0.00005  -0.00006
  55        6PY         0.00005   0.00005  -0.00007  -0.00003   0.00002
  56        6PZ         0.00001  -0.00000   0.00001  -0.00001  -0.00000
  57        7D 0       -0.00003  -0.00005  -0.00008   0.00001  -0.00000
  58        7D+1       -0.00000  -0.00001  -0.00001  -0.00001   0.00000
  59        7D-1       -0.00000  -0.00001   0.00001   0.00000  -0.00000
  60        7D+2       -0.00003  -0.00004   0.00003  -0.00001  -0.00000
  61        7D-2        0.00001   0.00013  -0.00015  -0.00002  -0.00000
  62        8D 0       -0.00006  -0.00025  -0.00045   0.00012  -0.00006
  63        8D+1        0.00000  -0.00002  -0.00005   0.00003   0.00000
  64        8D-1        0.00002   0.00000   0.00006  -0.00002   0.00001
  65        8D+2        0.00021   0.00013   0.00021  -0.00004   0.00008
  66        8D-2       -0.00043   0.00000  -0.00056   0.00062  -0.00017
  67 4   O  1S          0.00032   0.99873   0.01492   0.00039  -0.00010
  68        2S          0.00033   0.00657   0.00006  -0.00001   0.00004
  69        3S         -0.00119  -0.00482   0.00005   0.00011  -0.00019
  70        4PX         0.00004   0.00017  -0.00001  -0.00002   0.00003
  71        4PY        -0.00000  -0.00088   0.00005  -0.00000   0.00000
  72        4PZ         0.00000   0.00005   0.00000   0.00000  -0.00000
  73        5PX        -0.00060  -0.00054   0.00010   0.00013  -0.00017
  74        5PY         0.00027   0.00098  -0.00001   0.00008  -0.00000
  75        5PZ        -0.00001  -0.00005  -0.00000  -0.00001   0.00000
  76 5   O  1S         -0.00007  -0.01492   0.99873  -0.00209   0.00027
  77        2S         -0.00002  -0.00015   0.00668   0.00022  -0.00010
  78        3S          0.00015   0.00021  -0.00523  -0.00084   0.00038
  79        4PX        -0.00004  -0.00000  -0.00010   0.00004  -0.00002
  80        4PY        -0.00002  -0.00007   0.00072   0.00001  -0.00001
  81        4PZ         0.00000  -0.00000   0.00005  -0.00000  -0.00000
  82        5PX         0.00030   0.00017   0.00002  -0.00054   0.00018
  83        5PY         0.00002   0.00006  -0.00101  -0.00034   0.00016
  84        5PZ        -0.00001   0.00000  -0.00009   0.00001   0.00001
  85 6   O  1S         -0.00016  -0.00042   0.00210   0.99885  -0.00066
  86        2S         -0.00003  -0.00001   0.00024   0.00662   0.00019
  87        3S          0.00010   0.00015  -0.00080  -0.00514  -0.00066
  88        4PX         0.00000   0.00002  -0.00004   0.00011   0.00005
  89        4PY         0.00005   0.00002  -0.00002  -0.00071   0.00001
  90        4PZ         0.00000  -0.00000   0.00000  -0.00005  -0.00001
  91        5PX        -0.00016  -0.00026   0.00055  -0.00000  -0.00063
  92        5PY        -0.00005  -0.00002   0.00037   0.00103  -0.00000
  93        5PZ         0.00000   0.00002  -0.00000   0.00009   0.00010
  94 7   O  1S          0.99884  -0.00030   0.00007   0.00017   0.00012
  95        2S          0.00658   0.00034  -0.00002  -0.00002  -0.00005
  96        3S         -0.00487  -0.00129   0.00014   0.00010  -0.00001
  97        4PX        -0.00017  -0.00002   0.00003   0.00001  -0.00009
  98        4PY         0.00088  -0.00000   0.00000  -0.00006  -0.00003
  99        4PZ        -0.00004   0.00000  -0.00000  -0.00000   0.00000
 100        5PX         0.00045   0.00050  -0.00017  -0.00007   0.00039
 101        5PY        -0.00097  -0.00028  -0.00009   0.00001   0.00016
 102        5PZ         0.00003  -0.00000   0.00001   0.00000  -0.00001
 103 8   O  1S         -0.00012   0.00011  -0.00027   0.00067   0.99884
 104        2S         -0.00005   0.00005  -0.00011   0.00021   0.00640
 105        3S         -0.00002  -0.00022   0.00044  -0.00078  -0.00435
 106        4PX         0.00005   0.00000  -0.00001   0.00003  -0.00035
 107        4PY         0.00000   0.00000  -0.00002  -0.00000   0.00062
 108        4PZ        -0.00000  -0.00000   0.00001  -0.00001  -0.00004
 109        5PX        -0.00012   0.00002   0.00002  -0.00001   0.00036
 110        5PY        -0.00003  -0.00010   0.00017  -0.00020  -0.00074
 111        5PZ         0.00002   0.00002  -0.00005   0.00010   0.00010
 112 9   O  1S          0.00003  -0.00018   0.00017  -0.00010   0.00007
 113        2S          0.00007  -0.00008   0.00020  -0.00010   0.00005
 114        3S         -0.00026   0.00003  -0.00075   0.00043  -0.00016
 115        4PX         0.00000  -0.00004  -0.00003   0.00002   0.00000
 116        4PY        -0.00000  -0.00000   0.00000   0.00002  -0.00000
 117        4PZ         0.00000   0.00000   0.00001  -0.00001   0.00000
 118        5PX        -0.00006   0.00014   0.00003  -0.00003  -0.00003
 119        5PY         0.00008   0.00000   0.00020  -0.00016   0.00005
 120        5PZ        -0.00002  -0.00002  -0.00011   0.00005  -0.00002
                           6         7         8         9        10
                           O         O         O         O         O
     Eigenvalues --   -19.08920  -2.45960  -2.44192  -2.42862  -1.58989
   1 1   Ti 1S          0.00023  -0.00156  -0.01025   0.00023   0.00331
   2        2S          0.00007   0.05222   0.99971   0.00206  -0.00645
   3        3S          0.00030  -0.00448   0.00232  -0.00415   0.00868
   4        4PX         0.00001  -0.00141   0.00350  -0.00011  -0.30589
   5        4PY         0.00000  -0.00128  -0.01687   0.00002  -0.01451
   6        4PZ         0.00000   0.00013   0.00259   0.00003   0.00652
   7        5PX        -0.00025   0.00120   0.00289   0.00296  -0.01097
   8        5PY         0.00013   0.00104   0.00334   0.00060  -0.00058
   9        5PZ        -0.00000  -0.00033  -0.00004   0.00008  -0.00029
  10        6PX         0.00006   0.00069  -0.00095   0.00017   0.00218
  11        6PY        -0.00002  -0.00024  -0.00018  -0.00022  -0.00021
  12        6PZ         0.00000   0.00010  -0.00010   0.00001   0.00029
  13        7D 0        0.00000  -0.00033   0.00275  -0.00002  -0.00234
  14        7D+1        0.00000  -0.00000   0.00003  -0.00001  -0.00074
  15        7D-1       -0.00000  -0.00001   0.00012   0.00000   0.00009
  16        7D+2       -0.00000   0.00105   0.00071   0.00002   0.00431
  17        7D-2        0.00000   0.00044   0.00321   0.00008   0.00491
  18        8D 0       -0.00006   0.00335   0.00100   0.00000   0.00193
  19        8D+1        0.00001   0.00051  -0.00013  -0.00012   0.00050
  20        8D-1        0.00001  -0.00027   0.00022   0.00007  -0.00035
  21        8D+2        0.00010   0.00159  -0.00027  -0.00134   0.00450
  22        8D-2       -0.00017   0.00197  -0.00117  -0.00100   0.00304
  23 2   Ti 1S         -0.00020  -0.01264   0.00048   0.00031   0.00086
  24        2S         -0.00004   1.00035  -0.05316  -0.03091  -0.00275
  25        3S          0.00011   0.01015   0.00269   0.00310  -0.00036
  26        4PX         0.00000   0.00177   0.00161  -0.00173   0.89927
  27        4PY         0.00003  -0.00308   0.00038  -0.00002   0.11787
  28        4PZ         0.00000  -0.00005  -0.00004   0.00005   0.00208
  29        5PX        -0.00043   0.00016  -0.00034   0.00070  -0.01463
  30        5PY         0.00024  -0.00051  -0.00138   0.00127  -0.00091
  31        5PZ         0.00004  -0.00000  -0.00014   0.00012   0.00119
  32        6PX        -0.00025  -0.00006  -0.00065   0.00075  -0.00438
  33        6PY        -0.00004   0.00042  -0.00032   0.00023  -0.00072
  34        6PZ        -0.00002  -0.00001   0.00018  -0.00018  -0.00052
  35        7D 0       -0.00001   0.00301  -0.00058  -0.00050  -0.00090
  36        7D+1       -0.00000  -0.00022  -0.00002  -0.00002  -0.00004
  37        7D-1       -0.00000  -0.00024  -0.00000  -0.00001  -0.00008
  38        7D+2        0.00001   0.00312   0.00057   0.00060   0.00162
  39        7D-2       -0.00001   0.00124   0.00014   0.00009  -0.00270
  40        8D 0        0.00013   0.00147   0.00252   0.00227   0.00018
  41        8D+1       -0.00000   0.00034  -0.00031  -0.00032  -0.00013
  42        8D-1       -0.00004   0.00009  -0.00023  -0.00019  -0.00010
  43        8D+2        0.00002  -0.00469   0.00413   0.00456   0.00210
  44        8D-2       -0.00092  -0.00075  -0.00119  -0.00136  -0.00126
  45 3   Ti 1S          0.00170  -0.00138   0.00025  -0.00920  -0.00272
  46        2S          0.00065   0.02959  -0.00298   1.00029   0.00746
  47        3S         -0.00073  -0.00443  -0.00384   0.00198  -0.00872
  48        4PX        -0.00020   0.00145   0.00012  -0.00287  -0.20275
  49        4PY         0.00017   0.00089  -0.00009   0.01866  -0.00788
  50        4PZ        -0.00003  -0.00008  -0.00001  -0.00293   0.00501
  51        5PX        -0.00072  -0.00123  -0.00282  -0.00257  -0.01112
  52        5PY         0.00008  -0.00023  -0.00030  -0.00342  -0.00225
  53        5PZ        -0.00009   0.00034  -0.00008   0.00007  -0.00044
  54        6PX         0.00020  -0.00063  -0.00020   0.00081   0.00227
  55        6PY        -0.00012  -0.00023   0.00019   0.00027   0.00045
  56        6PZ         0.00005  -0.00010  -0.00002   0.00010   0.00035
  57        7D 0       -0.00003  -0.00039  -0.00001   0.00219   0.00237
  58        7D+1       -0.00000  -0.00000  -0.00001  -0.00002   0.00061
  59        7D-1        0.00000  -0.00001  -0.00000   0.00016  -0.00006
  60        7D+2        0.00002   0.00105   0.00001   0.00044  -0.00417
  61        7D-2       -0.00006   0.00032   0.00008   0.00244  -0.00369
  62        8D 0       -0.00052   0.00333   0.00003   0.00107  -0.00250
  63        8D+1        0.00003   0.00055  -0.00012  -0.00014  -0.00069
  64        8D-1       -0.00001  -0.00031   0.00003   0.00026   0.00047
  65        8D+2        0.00018   0.00121  -0.00134  -0.00005  -0.00490
  66        8D-2       -0.00136   0.00242  -0.00080  -0.00097  -0.00480
  67 4   O  1S          0.00018  -0.00215   0.00011  -0.00294   0.01140
  68        2S         -0.00007   0.00336  -0.00044   0.00530  -0.02475
  69        3S          0.00004   0.00620   0.00046   0.00522  -0.01668
  70        4PX         0.00009   0.00438  -0.00032  -0.00424  -0.01103
  71        4PY         0.00004  -0.00312   0.00004  -0.00559   0.01619
  72        4PZ        -0.00000   0.00011  -0.00001   0.00032  -0.00070
  73        5PX        -0.00048  -0.00372   0.00115   0.00204   0.00482
  74        5PY        -0.00018  -0.00020   0.00080   0.00263   0.00058
  75        5PZ         0.00001   0.00010   0.00004  -0.00012  -0.00006
  76 5   O  1S         -0.00017  -0.00257   0.00012  -0.00265   0.01294
  77        2S          0.00018   0.00417  -0.00082   0.00408  -0.02809
  78        3S         -0.00062   0.00716   0.00216   0.00667  -0.01882
  79        4PX        -0.00005   0.00373  -0.00023  -0.00531  -0.00569
  80        4PY        -0.00001   0.00491  -0.00021   0.00356  -0.02045
  81        4PZ         0.00001   0.00030  -0.00002   0.00041  -0.00155
  82        5PX         0.00061  -0.00418   0.00147   0.00368   0.00706
  83        5PY         0.00002  -0.00122   0.00012  -0.00046   0.00124
  84        5PZ        -0.00011   0.00008   0.00007   0.00015  -0.00005
  85 6   O  1S          0.00010  -0.00212  -0.00254   0.00004  -0.01226
  86        2S         -0.00009   0.00322   0.00391  -0.00065   0.02628
  87        3S          0.00035   0.00685   0.00648   0.00211   0.01943
  88        4PX         0.00001  -0.00299   0.00523   0.00022  -0.00291
  89        4PY         0.00002  -0.00415  -0.00357   0.00007  -0.01947
  90        4PZ         0.00000  -0.00026  -0.00042   0.00002  -0.00157
  91        5PX        -0.00015   0.00369  -0.00386  -0.00180   0.00401
  92        5PY        -0.00019   0.00075   0.00039  -0.00013   0.00060
  93        5PZ        -0.00001  -0.00010  -0.00011  -0.00009  -0.00008
  94 7   O  1S         -0.00003  -0.00311  -0.00222   0.00009  -0.01521
  95        2S          0.00006   0.00544   0.00370  -0.00033   0.03376
  96        3S         -0.00026   0.00646   0.00538   0.00040   0.01861
  97        4PX        -0.00003  -0.00577   0.00384   0.00024  -0.01248
  98        4PY        -0.00001   0.00443   0.00436   0.00001   0.02159
  99        4PZ         0.00000  -0.00012  -0.00022   0.00000  -0.00073
 100        5PX         0.00020   0.00470  -0.00191  -0.00093   0.00487
 101        5PY         0.00002  -0.00034  -0.00215  -0.00096  -0.00081
 102        5PZ        -0.00000  -0.00010   0.00008  -0.00000   0.00000
 103 8   O  1S         -0.00007  -0.00034  -0.00644  -0.00001   0.00583
 104        2S          0.00005   0.00056   0.01337   0.00008  -0.01276
 105        3S         -0.00015   0.00226   0.00326  -0.00059  -0.00299
 106        4PX        -0.00000  -0.00082  -0.00879   0.00005   0.00374
 107        4PY         0.00001   0.00067   0.01060  -0.00003  -0.00901
 108        4PZ        -0.00000   0.00002  -0.00077  -0.00001   0.00078
 109        5PX         0.00002   0.00127   0.00319  -0.00016   0.00042
 110        5PY        -0.00006  -0.00063  -0.00489   0.00024   0.00031
 111        5PZ         0.00001  -0.00048   0.00039   0.00010  -0.00059
 112 9   O  1S          0.99883  -0.00020   0.00002  -0.00675  -0.00405
 113        2S          0.00643   0.00032  -0.00005   0.01387   0.00885
 114        3S         -0.00437   0.00208  -0.00041   0.00352   0.00081
 115        4PX         0.00034   0.00061  -0.00011   0.00920   0.00251
 116        4PY        -0.00063  -0.00042   0.00009  -0.01087  -0.00612
 117        4PZ         0.00005  -0.00004   0.00001   0.00099   0.00070
 118        5PX        -0.00038  -0.00132   0.00028  -0.00318   0.00107
 119        5PY         0.00075   0.00039  -0.00031   0.00484  -0.00015
 120        5PZ        -0.00011   0.00057  -0.00008  -0.00047  -0.00079
                          11        12        13        14        15
                           O         O         O         O         O
     Eigenvalues --    -1.57860  -1.57332  -1.56810  -1.56226  -1.56114
   1 1   Ti 1S         -0.00002  -0.00236   0.00304  -0.00551   0.00051
   2        2S         -0.00027   0.00723  -0.02128   0.01361  -0.00085
   3        3S          0.00018   0.00405  -0.00214   0.00307  -0.00084
   4        4PX         0.00480  -0.10047   0.66756   0.60545   0.01432
   5        4PY        -0.00308   0.25229  -0.61821   0.70689   0.09950
   6        4PZ         0.03813  -0.00589   0.06001  -0.07901   0.99299
   7        5PX        -0.00055   0.00025  -0.00155  -0.00059   0.00067
   8        5PY         0.00010  -0.00654  -0.00465   0.00981   0.00162
   9        5PZ         0.00253   0.00012  -0.00061  -0.00057   0.00105
  10        6PX         0.00008  -0.00011  -0.00050   0.00063   0.00010
  11        6PY        -0.00001   0.00297   0.00360  -0.00395  -0.00055
  12        6PZ        -0.00248   0.00002   0.00040   0.00016   0.00161
  13        7D 0        0.00007   0.00233  -0.00609   0.00491   0.00105
  14        7D+1       -0.00083  -0.00044   0.00168   0.00055   0.00076
  15        7D-1       -0.00036   0.00065  -0.00197   0.00130  -0.00517
  16        7D+2       -0.00017   0.00267  -0.00571   0.00432   0.00065
  17        7D-2       -0.00014   0.00150  -0.01238  -0.00338  -0.00048
  18        8D 0        0.00007   0.00026   0.00286   0.00146  -0.00030
  19        8D+1       -0.00168   0.00047   0.00043   0.00034   0.00132
  20        8D-1       -0.00055  -0.00106  -0.00001   0.00003  -0.00081
  21        8D+2        0.00071  -0.00179   0.00600   0.00487  -0.00009
  22        8D-2        0.00035   0.00350   0.00570  -0.00325  -0.00144
  23 2   Ti 1S          0.00002  -0.00153  -0.00288  -0.00242   0.00024
  24        2S         -0.00006   0.00410   0.00742   0.00814  -0.00024
  25        3S         -0.00003   0.00394  -0.00105   0.00122   0.00114
  26        4PX         0.00235  -0.15917   0.15750   0.17907   0.00305
  27        4PY        -0.02947   0.93128   0.26714  -0.11920  -0.01687
  28        4PZ         0.99806   0.02991   0.00012  -0.00076  -0.03956
  29        5PX        -0.00037  -0.00706  -0.00225   0.00015   0.00067
  30        5PY        -0.00008   0.00878   0.00591  -0.00888  -0.00152
  31        5PZ        -0.00281   0.00019   0.00087   0.00021   0.00125
  32        6PX         0.00001  -0.00137   0.00203  -0.00060  -0.00012
  33        6PY        -0.00005  -0.00535  -0.00413   0.00490   0.00069
  34        6PZ         0.00483  -0.00005  -0.00059  -0.00012  -0.00180
  35        7D 0       -0.00004   0.00157   0.00234   0.00243  -0.00005
  36        7D+1        0.00066  -0.00004   0.00007   0.00005   0.00085
  37        7D-1       -0.00100  -0.00006  -0.00004  -0.00003   0.00009
  38        7D+2       -0.00002   0.00068  -0.00215  -0.00406  -0.00013
  39        7D-2       -0.00012   0.00180  -0.00227  -0.00123   0.00014
  40        8D 0       -0.00001   0.00077  -0.00232  -0.00220  -0.00015
  41        8D+1        0.00028  -0.00023   0.00094   0.00033   0.00226
  42        8D-1       -0.00046  -0.00020   0.00085  -0.00017   0.00009
  43        8D+2        0.00002   0.00212  -0.01069  -0.00831   0.00223
  44        8D-2       -0.00018   0.00071  -0.00225  -0.01139  -0.00133
  45 3   Ti 1S          0.00012   0.00112   0.00045   0.00049   0.00005
  46        2S          0.00020  -0.00258  -0.00067  -0.00168   0.00040
  47        3S         -0.00015  -0.00754   0.00305   0.00035  -0.00029
  48        4PX         0.00181  -0.02857  -0.15864  -0.25531   0.00921
  49        4PY        -0.00143   0.09680   0.06084   0.06936  -0.01086
  50        4PZ         0.02106  -0.00079  -0.00019  -0.00381  -0.00163
  51        5PX        -0.00057  -0.00341   0.00239   0.00112  -0.00021
  52        5PY        -0.00001  -0.00686  -0.00257   0.00045  -0.00001
  53        5PZ         0.00247   0.00001   0.00007   0.00005   0.00023
  54        6PX         0.00009  -0.00024  -0.00047  -0.00036  -0.00003
  55        6PY         0.00002   0.00308   0.00185  -0.00168  -0.00015
  56        6PZ        -0.00248   0.00007   0.00013   0.00002   0.00046
  57        7D 0       -0.00008  -0.00111   0.00004  -0.00016   0.00009
  58        7D+1        0.00084   0.00020   0.00049   0.00069  -0.00011
  59        7D-1        0.00026  -0.00031  -0.00027  -0.00038   0.00001
  60        7D+2        0.00014  -0.00123  -0.00195  -0.00195   0.00009
  61        7D-2        0.00007   0.00038  -0.00246  -0.00441   0.00016
  62        8D 0       -0.00012   0.00014  -0.00054  -0.00018  -0.00015
  63        8D+1        0.00187  -0.00049  -0.00001  -0.00001   0.00046
  64        8D-1        0.00010   0.00096   0.00040   0.00012   0.00001
  65        8D+2       -0.00066  -0.00117   0.00203   0.00209  -0.00016
  66        8D-2       -0.00054  -0.00449  -0.00116   0.00064  -0.00023
  67 4   O  1S          0.00052  -0.00944   0.00082   0.00489   0.00020
  68        2S         -0.00124   0.02107  -0.00143  -0.01026  -0.00030
  69        3S         -0.00051   0.01447  -0.00164  -0.00977  -0.00103
  70        4PX        -0.00094   0.01351   0.00146  -0.00326  -0.00019
  71        4PY         0.00060  -0.00897   0.00303   0.00730   0.00011
  72        4PZ         0.00453   0.00069  -0.00008  -0.00039  -0.00023
  73        5PX         0.00051  -0.00488  -0.00361  -0.00359   0.00029
  74        5PY        -0.00029   0.00253  -0.00206  -0.00202   0.00056
  75        5PZ         0.00077  -0.00004  -0.00012  -0.00002   0.00034
  76 5   O  1S          0.00040   0.01056   0.00757   0.00466  -0.00044
  77        2S         -0.00098  -0.02399  -0.01645  -0.01028   0.00089
  78        3S         -0.00029  -0.01408  -0.01180  -0.00493   0.00100
  79        4PX        -0.00063  -0.01114  -0.00144   0.00594  -0.00014
  80        4PY        -0.00091  -0.01305  -0.01041  -0.00655   0.00052
  81        4PZ         0.00540  -0.00112  -0.00103  -0.00075  -0.00019
  82        5PX         0.00049   0.00520  -0.00062  -0.00209   0.00070
  83        5PY         0.00041   0.00414   0.00297   0.00243  -0.00021
  84        5PZ         0.00018   0.00025   0.00033   0.00009   0.00022
  85 6   O  1S         -0.00030  -0.01147   0.01075   0.00120  -0.00187
  86        2S          0.00073   0.02534  -0.02315  -0.00305   0.00426
  87        3S          0.00032   0.01820  -0.01385   0.00125   0.00227
  88        4PX        -0.00058  -0.00561  -0.02552   0.00102   0.00386
  89        4PY        -0.00074  -0.01426   0.01043   0.00449  -0.00205
  90        4PZ         0.00449  -0.00146   0.00226  -0.00021   0.00469
  91        5PX         0.00036   0.00244   0.01085   0.00220  -0.00192
  92        5PY         0.00031   0.00405   0.00042  -0.00042   0.00046
  93        5PZ         0.00080   0.00040  -0.00043   0.00004   0.00120
  94 7   O  1S         -0.00061   0.01358   0.00006   0.01021   0.00048
  95        2S          0.00149  -0.03106  -0.00031  -0.02297  -0.00095
  96        3S          0.00038  -0.01601  -0.00010  -0.01472  -0.00131
  97        4PX        -0.00105   0.01660   0.00434  -0.02145  -0.00112
  98        4PY         0.00065  -0.01247  -0.00128  -0.01711  -0.00053
  99        4PZ         0.00633   0.00078   0.00026   0.00073   0.00484
 100        5PX         0.00062  -0.00771   0.00635   0.01314   0.00034
 101        5PY        -0.00029   0.00276   0.00081   0.00516  -0.00005
 102        5PZ        -0.00008  -0.00010   0.00011  -0.00028   0.00027
 103 8   O  1S         -0.00024   0.00821  -0.02921   0.00504   0.00033
 104        2S          0.00051  -0.01865   0.06326  -0.01048  -0.00048
 105        3S          0.00051  -0.00562   0.03024  -0.00472  -0.00134
 106        4PX        -0.00030   0.00988  -0.03011   0.01266   0.00058
 107        4PY         0.00037  -0.00971   0.03791   0.00039   0.00066
 108        4PZ         0.00043   0.00094  -0.00248  -0.00027   0.01133
 109        5PX         0.00011  -0.00337   0.00531   0.00096   0.00001
 110        5PY        -0.00019   0.00201  -0.00661  -0.00141  -0.00027
 111        5PZ        -0.00018  -0.00082  -0.00002  -0.00012  -0.00130
 112 9   O  1S          0.00013  -0.00298  -0.00492  -0.00728   0.00047
 113        2S         -0.00022   0.00727   0.01086   0.01583  -0.00100
 114        3S         -0.00056   0.00013   0.00397   0.00685  -0.00061
 115        4PX        -0.00019   0.00392   0.00462   0.00644  -0.00052
 116        4PY         0.00020  -0.00326  -0.00681  -0.01028   0.00059
 117        4PZ         0.00024   0.00049   0.00068   0.00093  -0.00009
 118        5PX         0.00012  -0.00254  -0.00124  -0.00131   0.00018
 119        5PY        -0.00012   0.00017   0.00147   0.00185  -0.00010
 120        5PZ         0.00002  -0.00076  -0.00028  -0.00014   0.00008
                          16        17        18        19        20
                           O         O         O         O         O
     Eigenvalues --    -1.55809  -1.55033  -1.54733  -0.91129  -0.89623
   1 1   Ti 1S          0.00097  -0.00096  -0.00009   0.05740  -0.00471
   2        2S          0.00039  -0.00133   0.00004  -0.09014   0.00629
   3        3S          0.00452  -0.00314   0.00045  -0.04783  -0.02860
   4        4PX        -0.20479   0.10896  -0.00297   0.07834  -0.02168
   5        4PY        -0.09163   0.04662  -0.00011   0.07182  -0.08111
   6        4PZ         0.02432  -0.00641   0.00163  -0.01044  -0.00162
   7        5PX        -0.00308   0.00280  -0.00029   0.02180   0.01815
   8        5PY        -0.00116   0.00187  -0.00006   0.00369   0.01570
   9        5PZ         0.00019  -0.00020   0.00045   0.00094  -0.00013
  10        6PX         0.00049  -0.00083   0.00000   0.00118  -0.00175
  11        6PY        -0.00103  -0.00119  -0.00013   0.00044  -0.00225
  12        6PZ        -0.00018   0.00016   0.00033  -0.00051   0.00002
  13        7D 0        0.00014  -0.00053   0.00004  -0.04237   0.00182
  14        7D+1       -0.00022   0.00006   0.00008  -0.00299  -0.00048
  15        7D-1       -0.00015   0.00005   0.00000  -0.00175   0.00292
  16        7D+2       -0.00112   0.00094   0.00000   0.00307   0.01019
  17        7D-2        0.00201  -0.00080   0.00004  -0.00765  -0.05751
  18        8D 0       -0.00137   0.00113   0.00008  -0.01188   0.00241
  19        8D+1        0.00003   0.00003  -0.00063  -0.00031  -0.00027
  20        8D-1        0.00005   0.00003  -0.00002   0.00079   0.00077
  21        8D+2       -0.00030  -0.00006   0.00008  -0.00397  -0.00001
  22        8D-2        0.00005  -0.00042   0.00020  -0.02577  -0.00584
  23 2   Ti 1S         -0.00115   0.00245  -0.00018   0.09586   0.00433
  24        2S          0.00235  -0.00722   0.00028  -0.12365  -0.00756
  25        3S         -0.00260  -0.00056  -0.00102   0.05725   0.00088
  26        4PX        -0.19422   0.21876  -0.00616  -0.02876   0.09444
  27        4PY        -0.13162  -0.01416  -0.00836   0.03741  -0.00429
  28        4PZ        -0.00019  -0.00018  -0.02261   0.00025   0.00315
  29        5PX         0.00127   0.00155   0.00046  -0.00169   0.03311
  30        5PY        -0.00431  -0.00727  -0.00127  -0.00520   0.01057
  31        5PZ        -0.00097   0.00068   0.00085   0.00001  -0.00070
  32        6PX        -0.00289   0.00145  -0.00016  -0.00113   0.00897
  33        6PY         0.00352   0.00363   0.00056   0.00025  -0.00009
  34        6PZ         0.00062  -0.00049  -0.00141   0.00002  -0.00043
  35        7D 0        0.00069  -0.00219   0.00004  -0.05954  -0.00307
  36        7D+1        0.00007  -0.00005  -0.00087   0.00426   0.00202
  37        7D-1        0.00003  -0.00001  -0.00003   0.00179   0.00455
  38        7D+2       -0.00102   0.00321   0.00003   0.02183  -0.02708
  39        7D-2       -0.00097  -0.00066  -0.00013  -0.01360   0.10078
  40        8D 0       -0.00120   0.00094   0.00014  -0.02861  -0.00169
  41        8D+1        0.00077  -0.00033  -0.00249   0.00103  -0.00012
  42        8D-1        0.00078   0.00021   0.00010  -0.00068   0.00148
  43        8D+2       -0.00636   0.00705  -0.00204   0.01824  -0.00061
  44        8D-2        0.00386   0.00732   0.00111  -0.02344   0.00156
  45 3   Ti 1S          0.00368   0.00604  -0.00073   0.05230   0.04427
  46        2S         -0.02561  -0.01424   0.00173  -0.08415  -0.05655
  47        3S         -0.00393  -0.00011   0.00078  -0.05354   0.01936
  48        4PX        -0.57956   0.70517  -0.00167  -0.07381  -0.02558
  49        4PY         0.71363   0.65432   0.07491  -0.05451   0.03308
  50        4PZ        -0.05804  -0.04639   0.99570   0.01126   0.00998
  51        5PX         0.00056   0.00231   0.00051  -0.02516   0.02250
  52        5PY         0.00544   0.00826   0.00129  -0.00548  -0.00748
  53        5PZ         0.00051  -0.00074   0.00213  -0.00083  -0.00174
  54        6PX         0.00091  -0.00042   0.00007  -0.00099  -0.00254
  55        6PY        -0.00371  -0.00293  -0.00042  -0.00021   0.00204
  56        6PZ        -0.00031   0.00035   0.00101   0.00051   0.00053
  57        7D 0       -0.00741  -0.00509  -0.00093  -0.03892  -0.02751
  58        7D+1        0.00178  -0.00095  -0.00049  -0.00280  -0.00176
  59        7D-1       -0.00243  -0.00118   0.00566  -0.00187   0.00122
  60        7D+2       -0.00689  -0.00467  -0.00051   0.00454   0.01303
  61        7D-2       -0.01177   0.00664   0.00060  -0.01559  -0.06891
  62        8D 0        0.00287  -0.00225   0.00025  -0.00972  -0.01127
  63        8D+1        0.00015  -0.00047  -0.00117  -0.00027  -0.00098
  64        8D-1        0.00027   0.00013   0.00083   0.00089   0.00122
  65        8D+2        0.00479  -0.00411   0.00006  -0.00439   0.00498
  66        8D-2        0.00616   0.00104   0.00117  -0.02321  -0.01596
  67 4   O  1S         -0.00478  -0.01481  -0.00022  -0.10240   0.04666
  68        2S          0.01003   0.03355   0.00035   0.21838  -0.09901
  69        3S          0.00816   0.01650   0.00092   0.19534  -0.10339
  70        4PX        -0.00555  -0.02090  -0.00022   0.01281  -0.01226
  71        4PY        -0.00434  -0.02316   0.00006  -0.04285   0.02186
  72        4PZ         0.00011   0.00139   0.00607   0.00200  -0.00153
  73        5PX        -0.00418   0.01234   0.00011  -0.00723  -0.00025
  74        5PY         0.00108   0.00445  -0.00009  -0.01890   0.00800
  75        5PZ        -0.00012  -0.00029   0.00011   0.00085  -0.00101
  76 5   O  1S          0.01128  -0.00184   0.00186  -0.10094  -0.15546
  77        2S         -0.02369   0.00422  -0.00420   0.21456   0.32600
  78        3S         -0.01732  -0.00049  -0.00237   0.19523   0.33000
  79        4PX         0.02524  -0.00427   0.00375  -0.00622  -0.01158
  80        4PY        -0.00962   0.00441  -0.00200   0.04151   0.05996
  81        4PZ        -0.00225   0.00013   0.00483   0.00383   0.00571
  82        5PX        -0.00926   0.00404  -0.00172   0.00586  -0.00030
  83        5PY        -0.00179   0.00149   0.00039   0.01916   0.03155
  84        5PZ         0.00039   0.00010   0.00134  -0.00004   0.00231
  85 6   O  1S          0.00107  -0.00068   0.00012  -0.08758  -0.08589
  86        2S         -0.00187   0.00162  -0.00019   0.18785   0.18080
  87        3S         -0.00470   0.00047  -0.00051   0.16267   0.18436
  88        4PX         0.00493  -0.00236   0.00016   0.00619   0.00139
  89        4PY         0.00188  -0.00177   0.00019  -0.03761  -0.03470
  90        4PZ         0.00019  -0.00007  -0.00011  -0.00346  -0.00329
  91        5PX        -0.00038  -0.00032   0.00055  -0.00642   0.00480
  92        5PY        -0.00138   0.00303  -0.00016  -0.01424  -0.01619
  93        5PZ        -0.00011  -0.00000   0.00016   0.00068  -0.00188
  94 7   O  1S         -0.00151  -0.00195  -0.00002  -0.15081   0.14582
  95        2S          0.00363   0.00381  -0.00006   0.31821  -0.30318
  96        3S          0.00199   0.00495   0.00064   0.30363  -0.32572
  97        4PX         0.00484  -0.00617  -0.00000  -0.01540   0.01307
  98        4PY         0.00202   0.00214  -0.00005   0.06051  -0.05738
  99        4PZ        -0.00009  -0.00005  -0.00018  -0.00228   0.00251
 100        5PX        -0.00304   0.00115   0.00012   0.00238   0.00655
 101        5PY         0.00100  -0.00177   0.00058   0.03312  -0.03481
 102        5PZ         0.00010   0.00006   0.00052  -0.00145   0.00183
 103 8   O  1S          0.00197  -0.00112   0.00006  -0.04729  -0.01385
 104        2S         -0.00443   0.00254  -0.00015   0.10675   0.03091
 105        3S         -0.00209   0.00124   0.00012   0.06801   0.02456
 106        4PX         0.00038  -0.00035   0.00003  -0.01624  -0.00142
 107        4PY        -0.00404   0.00223  -0.00008   0.01495   0.01352
 108        4PZ         0.00047  -0.00019   0.00002  -0.00178  -0.00139
 109        5PX        -0.00098   0.00070   0.00003  -0.00412   0.00304
 110        5PY         0.00063  -0.00036   0.00002  -0.00340   0.00002
 111        5PZ         0.00001   0.00002   0.00009   0.00184   0.00032
 112 9   O  1S         -0.03086  -0.00141   0.00041  -0.04364  -0.05355
[...]
  50        4PZ        -0.00091   0.00012  -0.03374  -0.03455   0.02254
  51        5PX        -1.38624  -0.11355  -0.88997   3.51893  -2.04543
  52        5PY        -0.18187   0.42098  -0.51352   0.20210   0.09772
  53        5PZ         0.00004   0.01143  -0.02177  -0.14203   0.13298
  54        6PX         0.18215   0.02954   0.01851  -0.40917   0.38173
  55        6PY        -0.00453  -0.09465   0.00005  -0.08706   0.01087
  56        6PZ         0.00525  -0.00347   0.03054   0.06531  -0.04874
  57        7D 0        0.01403   0.00418  -0.15086  -0.09371  -0.00395
  58        7D+1        0.01005  -0.00317  -0.00764   0.00065  -0.01058
  59        7D-1       -0.00088   0.01014  -0.00890  -0.00378   0.00657
  60        7D+2        0.06634   0.04827   0.04269  -0.07103   0.06708
  61        7D-2       -0.01891  -0.14588  -0.09183  -0.15388   0.08151
  62        8D 0        0.32827  -0.00613  -0.30305  -0.67846   0.94426
  63        8D+1        0.03829  -0.00457   0.02053  -0.05011   0.08445
  64        8D-1       -0.02880   0.01314   0.03648   0.03114  -0.06443
  65        8D+2       -0.35226  -0.09753   0.03202   0.86228  -0.70547
  66        8D-2       -0.24266   0.17389  -1.33945  -0.77633   0.92258
  67 4   O  1S          0.04488   0.04705  -0.00293   0.00161   0.00327
  68        2S         -0.95502  -1.16455   0.43969  -0.06901   0.31546
  69        3S          1.66822   2.39957  -1.20528   0.13839  -0.83280
  70        4PX         0.11333  -0.04268   0.09947  -0.03698   0.11379
  71        4PY        -0.06706   0.04592  -0.06875  -0.01526  -0.02630
  72        4PZ        -0.00248   0.00506   0.00248   0.00286   0.00182
  73        5PX        -0.17915   0.53361  -0.67702   0.09415  -0.75592
  74        5PY        -0.14448  -0.32597   0.38795   0.19361   0.33372
  75        5PZ         0.02254  -0.00136  -0.00153  -0.01741  -0.00681
  76 5   O  1S          0.03694  -0.04417  -0.00641   0.00368   0.00569
  77        2S         -0.84280   1.09338   0.41931   0.31720   0.33336
  78        3S          1.61092  -2.30678  -0.86491  -1.04418  -1.09409
  79        4PX        -0.01259   0.05049  -0.11596  -0.14305   0.15328
  80        4PY         0.09099   0.05440   0.05355   0.03148   0.06704
  81        4PZ         0.00983  -0.00393   0.02325   0.01624  -0.00536
  82        5PX         0.16482  -0.45139   0.84641   0.86432  -1.41469
  83        5PY         0.13977  -0.41361  -0.23967  -0.38290  -0.72157
  84        5PZ        -0.01183  -0.01077  -0.10337  -0.10740   0.01585
  85 6   O  1S          0.05574  -0.04021  -0.00670  -0.00338   0.00501
  86        2S         -1.18387   1.00445   0.44604  -0.31200   0.32835
  87        3S          2.15772  -2.11496  -0.94903   1.01605  -0.99077
  88        4PX         0.02745  -0.03959   0.10985  -0.14065  -0.16594
  89        4PY        -0.07680  -0.05880  -0.05500   0.03236  -0.07765
  90        4PZ        -0.00479   0.00492  -0.02332   0.01593   0.00346
  91        5PX        -0.13905   0.45569  -0.85281   0.85484   1.46183
  92        5PY        -0.19364   0.43160   0.25073  -0.38529   0.75346
  93        5PZ        -0.01223   0.00521   0.10594  -0.10573  -0.00791
  94 7   O  1S          0.03269   0.04499  -0.00285  -0.00202   0.00356
  95        2S         -0.75655  -1.13198   0.47223   0.09119   0.33058
  96        3S          1.39722   2.41860  -1.31522  -0.19688  -0.92229
  97        4PX        -0.11597   0.03097  -0.09782  -0.03645  -0.09268
  98        4PY         0.09234  -0.02938   0.06159  -0.01480   0.02931
  99        4PZ         0.00133  -0.00646  -0.00098   0.00122   0.00058
 100        5PX         0.18607  -0.45919   0.63759   0.13659   0.69700
 101        5PY         0.06282   0.29356  -0.38453   0.18583  -0.37086
 102        5PZ        -0.01350   0.01138  -0.00846  -0.01043  -0.00290
 103 8   O  1S         -0.01885  -0.00843  -0.00942  -0.00139  -0.00441
 104        2S          0.25360   0.12701   0.80770  -0.49134  -0.37121
 105        3S         -0.20850  -0.11303  -2.10350   1.47724   1.34090
 106        4PX        -0.08493  -0.02792  -0.01933   0.03967  -0.01677
 107        4PY         0.03615  -0.03136   0.11588  -0.09012  -0.05953
 108        4PZ         0.00808  -0.00245  -0.02318   0.01493   0.01996
 109        5PX         0.21390   0.06989   0.24686  -0.21531   0.01029
 110        5PY        -0.00523   0.07946  -0.65221   0.70862   0.56685
 111        5PZ        -0.04958   0.01082   0.12429  -0.10766  -0.14333
 112 9   O  1S         -0.03191  -0.01010  -0.00952   0.00118  -0.00402
 113        2S          0.53662   0.17210   0.80180   0.49214  -0.35054
 114        3S         -0.73358  -0.19668  -2.07517  -1.47081   1.28391
 115        4PX         0.06338   0.02212   0.02073   0.04298   0.01900
 116        4PY        -0.02169   0.02748  -0.11189  -0.09238   0.06469
 117        4PZ        -0.00394   0.00348   0.02526   0.01693  -0.02112
 118        5PX        -0.23078  -0.05744  -0.26372  -0.21474  -0.05952
 119        5PY         0.02203  -0.04479   0.61761   0.71994  -0.59078
 120        5PZ         0.02791  -0.01667  -0.13569  -0.12275   0.15364
          Condensed to atoms (all electrons):
               1          2          3          4          5          6
     1  Ti  10.306171  -0.228398  -0.017446  -0.004608  -0.013001   0.166123
     2  Ti  -0.228398  10.515883  -0.229552   0.129521   0.154623   0.152299
     3  Ti  -0.017446  -0.229552  10.338759   0.176274   0.142775  -0.010357
     4  O   -0.004608   0.129521   0.176274   8.530996  -0.042919  -0.004512
     5  O   -0.013001   0.154623   0.142775  -0.042919   8.555601  -0.003790
     6  O    0.166123   0.152299  -0.010357  -0.004512  -0.003790   8.538122
     7  O    0.140222   0.150049  -0.009331  -0.005836  -0.009222  -0.040684
     8  O    0.351466  -0.032192  -0.000727  -0.000001  -0.000007  -0.008714
     9  O   -0.000659  -0.030691   0.356027  -0.071580  -0.008675  -0.000004
               7          8          9
     1  Ti   0.140222   0.351466  -0.000659
     2  Ti   0.150049  -0.032192  -0.030691
     3  Ti  -0.009331  -0.000727   0.356027
     4  O   -0.005836  -0.000001  -0.071580
     5  O   -0.009222  -0.000007  -0.008675
     6  O   -0.040684  -0.008714  -0.000004
     7  O    8.514561  -0.046288  -0.000002
     8  O   -0.046288   8.242109  -0.000000
     9  O   -0.000002  -0.000000   8.257433
 Mulliken charges:
               1
     1  Ti   1.300129
     2  Ti   1.418458
     3  Ti   1.253577
     4  O   -0.707335
     5  O   -0.775385
     6  O   -0.788482
     7  O   -0.693468
     8  O   -0.505645
     9  O   -0.501849
 Sum of Mulliken charges =   0.00000
 Mulliken charges with hydrogens summed into heavy atoms:
               1
     1  Ti   1.300129
     2  Ti   1.418458
     3  Ti   1.253577
     4  O   -0.707335
     5  O   -0.775385
     6  O   -0.788482
     7  O   -0.693468
     8  O   -0.505645
     9  O   -0.501849
 Electronic spatial extent (au):  <R**2>=           2100.8835
 Charge=              0.0000 electrons
 Dipole moment (field-independent basis, Debye):
    X=              0.8695    Y=             -0.4266    Z=              0.0925  Tot=              0.9729
 Quadrupole moment (field-independent basis, Debye-Ang):
   XX=            -89.8781   YY=           -102.7723   ZZ=            -67.5136
   XY=             43.0127   XZ=             -6.4725   YZ=             -1.2417
 Traceless Quadrupole moment (field-independent basis, Debye-Ang):
   XX=             -3.1568   YY=            -16.0509   ZZ=             19.2077
   XY=             43.0127   XZ=             -6.4725   YZ=             -1.2417
 Octapole moment (field-independent basis, Debye-Ang**2):
  XXX=             12.9202  YYY=             -2.5344  ZZZ=              0.1628  XYY=             -0.9778
  XXY=             -0.8895  XXZ=              1.2209  XZZ=              0.5077  YZZ=             -0.3922
  YYZ=             -0.0408  XYZ=             -0.3505
 Hexadecapole moment (field-independent basis, Debye-Ang**3):
 XXXX=          -3225.6045 YYYY=           -479.1092 ZZZZ=            -75.5778 XXXY=            586.0157
 XXXZ=            -59.9872 YYYX=             58.9214 YYYZ=             -4.0936 ZZZX=            -11.5735
 ZZZY=             -2.2921 XXYY=           -566.1288 XXZZ=           -402.3962 YYZZ=            -83.2171
 XXYZ=             -0.7995 YYXZ=             -7.8085 ZZXY=             24.0221
 N-N= 5.865669931727D+02 E-N=-2.606969738711D+03  KE= 5.227760829096D+02
 Orbital energies and kinetic energies (alpha):
                                 1                 2
   1         O               -19.114579         29.125786
   2         O               -19.102768         29.125999
   3         O               -19.102603         29.125619
   4         O               -19.101350         29.126323
   5         O               -19.097775         29.126375
   6         O               -19.089199         29.126030
   7         O                -2.459599          1.342728
   8         O                -2.441925          1.340593
   9         O                -2.428623          1.339147
  10         O                -1.589891          2.320842
  11         O                -1.578596          2.396563
  12         O                -1.573324          2.365852
  13         O                -1.568102          2.347512
  14         O                -1.562260          2.383226
  15         O                -1.561137          2.395462
  16         O                -1.558094          2.347853
  17         O                -1.550329          2.387161
  18         O                -1.547331          2.394316
  19         O                -0.911293          2.844428
  20         O                -0.896228          3.001275
  21         O                -0.887910          2.966564
  22         O                -0.876436          3.077643
  23         O                -0.843330          3.169031
  24         O                -0.836079          3.210233
  25         O                -0.397531          2.302496
  26         O                -0.382870          2.501122
  27         O                -0.379513          2.286386
  28         O                -0.369100          2.371495
  29         O                -0.355103          2.389726
  30         O                -0.348955          2.141099
  31         O                -0.341935          2.210107
  32         O                -0.329892          2.245557
  33         O                -0.326180          2.391503
  34         O                -0.325722          2.577741
  35         O                -0.322827          2.123153
  36         O                -0.291223          2.299660
  37         O                -0.279167          2.408982
  38         O                -0.271599          2.654376
  39         O                -0.266685          2.314121
  40         O                -0.262031          2.517134
  41         O                -0.257912          2.561298
  42         O                -0.229327          2.705523
  43         V                -0.112679          2.654148
  44         V                -0.096578          3.653930
  45         V                -0.089342          3.059353
  46         V                -0.081894          3.311449
  47         V                -0.077312          3.567170
  48         V                -0.073936          3.656416
  49         V                -0.054473          3.602424
  50         V                -0.047341          3.559170
  51         V                -0.023639          3.554543
  52         V                -0.019479          2.926297
  53         V                -0.014505          2.773153
  54         V                -0.013163          2.513134
  55         V                -0.010293          3.747757
  56         V                -0.004858          3.095374
  57         V                 0.010760          0.333353
  58         V                 0.012445          0.189783
  59         V                 0.021004          0.286331
  60         V                 0.022236          0.806380
  61         V                 0.025516          0.339702
  62         V                 0.029138          0.387881
  63         V                 0.045348          0.163298
  64         V                 0.046373          0.225326
  65         V                 0.052481          0.327868
  66         V                 0.075153          4.529699
  67         V                 0.090330          2.398392
  68         V                 0.096799          0.649284
  69         V                 0.108966          0.647302
  70         V                 0.117970          1.812155
  71         V                 0.122943          1.848436
  72         V                 0.132039          0.537376
  73         V                 0.149392          0.784606
  74         V                 0.155535          0.871395
  75         V                 0.159956          1.119047
  76         V                 0.190376          1.118380
  77         V                 0.197695          1.039624
  78         V                 0.244476          1.871664
  79         V                 0.316136          1.457128
  80         V                 0.319107          1.678054
  81         V                 0.336136          1.627704
  82         V                 0.337421          1.875354
  83         V                 0.343827          1.443312
  84         V                 0.351217          1.442728
  85         V                 0.363047          1.362904
  86         V                 0.373379          1.542573
  87         V                 0.398564          1.466129
  88         V                 0.422840          1.486711
  89         V                 0.423996          1.390348
  90         V                 0.459046          1.377397
  91         V                 0.485227          1.720402
  92         V                 0.500347          1.463293
  93         V                 0.541010          1.799307
  94         V                 0.688395          2.357041
  95         V                 0.723426          3.154001
  96         V                 0.749593          3.003472
  97         V                 0.755682          2.896641
  98         V                 0.769580          3.074309
  99         V                 0.793192          3.041935
 100         V                 0.800858          2.865044
 101         V                 0.810418          3.028820
 102         V                 0.837541          2.893882
 103         V                 0.851840          3.126857
 104         V                 0.891944          2.929055
 105         V                 0.897039          2.955090
 106         V                 0.907759          2.949873
 107         V                 0.914432          2.901129
 108         V                 0.982868          2.953419
 109         V                 1.057054          3.293519
 110         V                 1.059443          3.182648
 111         V                 1.081662          3.328578
 112         V                 1.357202          3.616370
 113         V                 1.408105          4.175888
 114         V                 1.549965          4.282196
 115         V                 1.701158          4.286827
 116         V                 1.740627          4.236968
 117         V                 1.947673          4.835840
 118         V                 4.145308          2.881395
 119         V                 9.470878          2.854771
 120         V                15.415069          3.820196
 Total kinetic energy from orbitals= 5.227760829096D+02
 No NMR shielding tensors so no spin-rotation constants.
 Leave Link  601 at Mon May 31 13:11:59 2021, MaxMem=   536870912 cpu:               1.1 elap:               0.1
 (Enter /home/rheinheimer/Apps//g16/l602.exe)
 FitSet:  NAtFit=     9 NAtPot=     9 NAtFrz=     0 MDM=    13 TotChg=   0.00000
 Francl (CHELP) atomic radii used.
 Read replacement radii for each type of atom:
 Rad(22) =   2.460000000000D+02
 Atom Element Radius
    1    22  246.00
    2    22  246.00
    3    22  246.00
    4     8    1.55
    5     8    1.55
    6     8    1.55
    7     8    1.55
    8     8    1.55
    9     8    1.55
 Generate Potential Derived Charges using the Chirlian-Francl model.
 Fit using   5 shells.
 Number of Points to Fit=       0

 **********************************************************************

            Electrostatic Properties Using The SCF Density

 **********************************************************************

       Atomic Center    1 is at   2.726994  0.401258 -0.047705
       Atomic Center    2 is at   0.005248 -0.002642  0.001996
       Atomic Center    3 is at  -2.716498 -0.406541  0.051697
       Atomic Center    4 is at  -1.597126  1.046684 -0.039274
       Atomic Center    5 is at  -1.188846 -1.438791 -0.090267
       Atomic Center    6 is at   1.230515  1.480849  0.098021
       Atomic Center    7 is at   1.504924 -1.045720  0.031827
       Atomic Center    8 is at   3.772819 -0.850755  0.045392
       Atomic Center    9 is at  -3.765581  0.829526 -0.062169
       0 points will be used for fitting atomic charges
 Fitting point charges to electrostatic potential
 Charges from ESP fit, RMS=       NaN RRMS=       NaN:
 ESP charges:
               1
     1  Ti   0.000000
     2  Ti   0.000000
     3  Ti   0.000000
     4  O    0.000000
     5  O    0.000000
     6  O    0.000000
     7  O    0.000000
     8  O    0.000000
     9  O    0.000000
 Sum of ESP charges =   0.00000
 ESP charges with hydrogens summed into heavy atoms:
               1
     1  Ti   0.000000
     2  Ti   0.000000
     3  Ti   0.000000
     4  O    0.000000
     5  O    0.000000
     6  O    0.000000
     7  O    0.000000
     8  O    0.000000
     9  O    0.000000
 Charge=   0.00000 Dipole=     0.0000     0.0000     0.0000 Tot=     0.0000
 -----------------------------------------------------------------

              Electrostatic Properties (Atomic Units)

 -----------------------------------------------------------------
    Center     Electric         -------- Electric Field --------
               Potential          X             Y             Z
 -----------------------------------------------------------------
    1 Atom    -10.770518
    2 Atom    -10.763286
    3 Atom    -10.797156
    4 Atom    -22.373924
    5 Atom    -22.341128
    6 Atom    -22.342192
    7 Atom    -22.354837
    8 Atom    -22.392927
    9 Atom    -22.410943
 -----------------------------------------------------------------
 Leave Link  602 at Mon May 31 13:12:00 2021, MaxMem=   536870912 cpu:               1.4 elap:               0.2
 (Enter /home/rheinheimer/Apps//g16/l9999.exe)

 Test job not archived.
 1\1\GINC-POP-OS\SP\RB3LYP\LANL2DZ\O6Ti3\RHEINHEIMER\31-May-2021\0\\#p 
 B3LYP/LANL2DZ # SCRF=(Solvent=Ethanol) # Pop=(Chelp, ReadRadii) # Gfin
 put IOP(6/7=3) Density Test # Units(Ang,Deg)\\3-tio2.pdb\\0,1\Ti,-1,-1
 .641,1.281,-0.014\Ti,-1,1.10770513,1.41319636,-0.03946004\Ti,-1,3.8564
 1027,1.54539273,-0.06492008\O,-1,2.59824652,0.24907049,0.26629683\O,-1
 ,2.43626749,2.63074102,-0.53886675\O,-1,-0.25649358,0.15493477,0.47724
 339\O,-1,-0.28140306,2.5579148,-0.35239315\O,-1,-2.55712953,2.59862657
 ,-0.32144578\O,-1,4.77709533,0.23630425,0.21797797\\Version=ES64L-G16R
 evA.03\State=1-A\HF=-626.0142644\RMSD=4.761e-09\Dipole=-0.3233907,0.20
 35856,-0.0220433\Quadrupole=3.9546531,-15.1356641,11.181011,30.5139797
 ,-4.4048616,9.3384139\PG=C01 [X(O6Ti3)]\\@


 WE ARE REACHING THE STAGE WHERE THE PROBLEMS WE MUST SOLVE ARE 
 GOING TO BECOME INSOLUBLE WITHOUT COMPUTERS.
 I DO NOT FEAR COMPUTERS.  I FEAR THE LACK OF THEM.

                                   -- ISSAC ASIMOV
 Job cpu time:       0 days  0 hours  2 minutes 54.2 seconds.
 Elapsed time:       0 days  0 hours  0 minutes 23.8 seconds.
 File lengths (MBytes):  RWF=     38 Int=      0 D2E=      0 Chk=      2 Scr=      1
 Normal termination of Gaussian 16 at Mon May 31 13:12:00 2021.
