3-tio2.pdb                                                              
SP        RB3LYP                                                      LANL2DZ             
Number of atoms                            I                9
Info1-9                                    I   N=           9
          24          24           0           0           0         111
           1          18        -502
Full Title                                 C   N=           1
3-tio2.pdb  
Route                                      C   N=          10
#p B3LYP/LANL2DZ # SCRF=(Solvent=Ethanol) # Pop=(Chelp, Read
Radii) # Gfinput IOP(6/7=3) Density Test # Units(Ang,Deg)   
Charge                                     I                0
Multiplicity                               I                1
Number of electrons                        I               84
Number of alpha electrons                  I               42
Number of beta electrons                   I               42
Number of basis functions                  I              120
Number of independent functions            I              120
Number of point charges in /Mol/           I                0
Number of translation vectors              I                0
Atomic numbers                             I   N=           9
          22          22          22           8           8           8
           8           8           8
Nuclear charges                            R   N=           9
  1.20000000E+01  1.20000000E+01  1.20000000E+01  8.00000000E+00  8.00000000E+00
  8.00000000E+00  8.00000000E+00  8.00000000E+00  8.00000000E+00
Current cartesian coordinates              R   N=          27
  5.15327099E+00  7.58267833E-01 -9.01485541E-02  9.91729403E-03 -4.99180436E-03
  3.77226187E-03 -5.13343642E+00 -7.68251462E-01  9.76930837E-02 -3.01813072E+00
  1.97794625E+00 -7.42168417E-02 -2.24659420E+00 -2.71892143E+00 -1.70579362E-01
  2.32533583E+00  2.79839852E+00  1.85233640E-01  2.84389346E+00 -1.97612398E+00
  6.01449143E-02  7.12959525E+00 -1.60769451E+00  8.57793467E-02 -7.11591725E+00
  1.56757759E+00 -1.17482874E-01
Number of symbols in /Mol/                 I                0
Force Field                                I                0
Atom Types                                 C   N=           9
                                                            
                                                
Int Atom Types                             I   N=           9
           0           0           0           0           0           0
           0           0           0
MM charges                                 R   N=           9
  0.00000000E+00  0.00000000E+00  0.00000000E+00  0.00000000E+00  0.00000000E+00
  0.00000000E+00  0.00000000E+00  0.00000000E+00  0.00000000E+00
Integer atomic weights                     I   N=           9
          48          48          48          16          16          16
          16          16          16
Real atomic weights                        R   N=           9
  4.79479467E+01  4.79479467E+01  4.79479467E+01  1.59949146E+01  1.59949146E+01
  1.59949146E+01  1.59949146E+01  1.59949146E+01  1.59949146E+01
Atom fragment info                         I   N=           9
           0           0           0           0           0           0
           0           0           0
Atom residue num                           I   N=           9
           0           0           0           0           0           0
           0           0           0
Nuclear spins                              I   N=           9
           0           0           0           0           0           0
           0           0           0
Nuclear ZEff                               R   N=           9
 -9.57000000E+00 -9.57000000E+00 -9.57000000E+00 -5.60000000E+00 -5.60000000E+00
 -5.60000000E+00 -5.60000000E+00 -5.60000000E+00 -5.60000000E+00
Nuclear ZNuc                               R   N=           9
  2.20000000E+01  2.20000000E+01  2.20000000E+01  8.00000000E+00  8.00000000E+00
  8.00000000E+00  8.00000000E+00  8.00000000E+00  8.00000000E+00
Nuclear QMom                               R   N=           9
  0.00000000E+00  0.00000000E+00  0.00000000E+00  0.00000000E+00  0.00000000E+00
  0.00000000E+00  0.00000000E+00  0.00000000E+00  0.00000000E+00
Nuclear GFac                               R   N=           9
  0.00000000E+00  0.00000000E+00  0.00000000E+00  0.00000000E+00  0.00000000E+00
  0.00000000E+00  0.00000000E+00  0.00000000E+00  0.00000000E+00
MicOpt                                     I   N=           9
          -2          -2          -2          -2          -2          -2
          -2          -2          -2
Number of residues                         I                0
Number of secondary structures             I                0
SymInf integers                            I   N=          26
           1           1           1           1           1           0
           0           0           0           0           0           0
           0           0           0           0           0           0
           0           0           0           0           0           0
           0           0
RotTr to input orientation                 R   N=          12
 -9.95055997E-01  9.76762160E-02 -1.79699837E-02 -9.85382281E-02 -9.48380670E-01
  3.01437096E-01  1.24008497E-02  3.01717520E-01  9.53316714E-01  2.10258892E+00
  2.66371311E+00 -7.64819001E-02
Number of contracted shells                I               54
Number of primitive shells                 I              141
Pure/Cartesian d shells                    I                0
Pure/Cartesian f shells                    I                0
Highest angular momentum                   I                2
Largest degree of contraction              I                7
Shell types                                I   N=          54
           0           0           0           1           1           1
          -2          -2           0           0           0           1
           1           1          -2          -2           0           0
           0           1           1           1          -2          -2
           0           0           0           1           1           0
           0           0           1           1           0           0
           0           1           1           0           0           0
           1           1           0           0           0           1
           1           0           0           0           1           1
Number of primitives per shell             I   N=          54
           3           3           1           3           1           1
           4           1           3           3           1           3
           1           1           4           1           3           3
           1           3           1           1           4           1
           7           2           1           4           1           7
           2           1           4           1           7           2
           1           4           1           7           2           1
           4           1           7           2           1           4
           1           7           2           1           4           1
Shell to atom map                          I   N=          54
           1           1           1           1           1           1
           1           1           2           2           2           2
           2           2           2           2           3           3
           3           3           3           3           3           3
           4           4           4           4           4           5
           5           5           5           5           6           6
           6           6           6           7           7           7
           7           7           8           8           8           8
           8           9           9           9           9           9
Primitive exponents                        R   N=         141
  1.09800000E+00  4.17800000E-01  8.72000000E-02  4.37200000E+00  1.09800000E+00
  4.17800000E-01  3.14000000E-02  1.25200000E+01  1.49100000E+00  4.85900000E-01
  5.30000000E-02  1.60000000E-02  2.02100000E+01  5.49500000E+00  1.69900000E+00
  4.84000000E-01  1.15700000E-01  1.09800000E+00  4.17800000E-01  8.72000000E-02
  4.37200000E+00  1.09800000E+00  4.17800000E-01  3.14000000E-02  1.25200000E+01
  1.49100000E+00  4.85900000E-01  5.30000000E-02  1.60000000E-02  2.02100000E+01
  5.49500000E+00  1.69900000E+00  4.84000000E-01  1.15700000E-01  1.09800000E+00
  4.17800000E-01  8.72000000E-02  4.37200000E+00  1.09800000E+00  4.17800000E-01
  3.14000000E-02  1.25200000E+01  1.49100000E+00  4.85900000E-01  5.30000000E-02
  1.60000000E-02  2.02100000E+01  5.49500000E+00  1.69900000E+00  4.84000000E-01
  1.15700000E-01  7.81700000E+03  1.17600000E+03  2.73200000E+02  8.11700000E+01
  2.71800000E+01  9.53200000E+00  3.41400000E+00  9.53200000E+00  9.39800000E-01
  2.84600000E-01  3.51800000E+01  7.90400000E+00  2.30500000E+00  7.17100000E-01
  2.13700000E-01  7.81700000E+03  1.17600000E+03  2.73200000E+02  8.11700000E+01
  2.71800000E+01  9.53200000E+00  3.41400000E+00  9.53200000E+00  9.39800000E-01
  2.84600000E-01  3.51800000E+01  7.90400000E+00  2.30500000E+00  7.17100000E-01
  2.13700000E-01  7.81700000E+03  1.17600000E+03  2.73200000E+02  8.11700000E+01
  2.71800000E+01  9.53200000E+00  3.41400000E+00  9.53200000E+00  9.39800000E-01
  2.84600000E-01  3.51800000E+01  7.90400000E+00  2.30500000E+00  7.17100000E-01
  2.13700000E-01  7.81700000E+03  1.17600000E+03  2.73200000E+02  8.11700000E+01
  2.71800000E+01  9.53200000E+00  3.41400000E+00  9.53200000E+00  9.39800000E-01
  2.84600000E-01  3.51800000E+01  7.90400000E+00  2.30500000E+00  7.17100000E-01
  2.13700000E-01  7.81700000E+03  1.17600000E+03  2.73200000E+02  8.11700000E+01
  2.71800000E+01  9.53200000E+00  3.41400000E+00  9.53200000E+00  9.39800000E-01
  2.84600000E-01  3.51800000E+01  7.90400000E+00  2.30500000E+00  7.17100000E-01
  2.13700000E-01  7.81700000E+03  1.17600000E+03  2.73200000E+02  8.11700000E+01
  2.71800000E+01  9.53200000E+00  3.41400000E+00  9.53200000E+00  9.39800000E-01
  2.84600000E-01  3.51800000E+01  7.90400000E+00  2.30500000E+00  7.17100000E-01
  2.13700000E-01
Contraction coefficients                   R   N=         141
 -1.02367699E-01 -3.75317215E-01  1.21542315E+00 -3.63709837E-01  8.18453383E-01
  4.18452642E-01  1.00000000E+00 -4.56908005E-02  6.20331307E-01  4.76532906E-01
  1.00000000E+00  1.00000000E+00  3.41681990E-02  1.71000595E-01  4.40584887E-01
  6.11424582E-01  1.00000000E+00 -1.02367699E-01 -3.75317215E-01  1.21542315E+00
 -3.63709837E-01  8.18453383E-01  4.18452642E-01  1.00000000E+00 -4.56908005E-02
  6.20331307E-01  4.76532906E-01  1.00000000E+00  1.00000000E+00  3.41681990E-02
  1.71000595E-01  4.40584887E-01  6.11424582E-01  1.00000000E+00 -1.02367699E-01
 -3.75317215E-01  1.21542315E+00 -3.63709837E-01  8.18453383E-01  4.18452642E-01
  1.00000000E+00 -4.56908005E-02  6.20331307E-01  4.76532906E-01  1.00000000E+00
  1.00000000E+00  3.41681990E-02  1.71000595E-01  4.40584887E-01  6.11424582E-01
  1.00000000E+00  1.17600033E-03  8.96800252E-03  4.28680121E-02  1.43930040E-01
  3.55630100E-01  4.61248130E-01  1.40206039E-01 -1.54153074E-01  1.05691451E+00
  1.00000000E+00  1.95800005E-02  1.24200003E-01  3.94714010E-01  6.27376016E-01
  1.00000000E+00  1.17600033E-03  8.96800252E-03  4.28680121E-02  1.43930040E-01
  3.55630100E-01  4.61248130E-01  1.40206039E-01 -1.54153074E-01  1.05691451E+00
  1.00000000E+00  1.95800005E-02  1.24200003E-01  3.94714010E-01  6.27376016E-01
  1.00000000E+00  1.17600033E-03  8.96800252E-03  4.28680121E-02  1.43930040E-01
  3.55630100E-01  4.61248130E-01  1.40206039E-01 -1.54153074E-01  1.05691451E+00
  1.00000000E+00  1.95800005E-02  1.24200003E-01  3.94714010E-01  6.27376016E-01
  1.00000000E+00  1.17600033E-03  8.96800252E-03  4.28680121E-02  1.43930040E-01
  3.55630100E-01  4.61248130E-01  1.40206039E-01 -1.54153074E-01  1.05691451E+00
  1.00000000E+00  1.95800005E-02  1.24200003E-01  3.94714010E-01  6.27376016E-01
  1.00000000E+00  1.17600033E-03  8.96800252E-03  4.28680121E-02  1.43930040E-01
  3.55630100E-01  4.61248130E-01  1.40206039E-01 -1.54153074E-01  1.05691451E+00
  1.00000000E+00  1.95800005E-02  1.24200003E-01  3.94714010E-01  6.27376016E-01
  1.00000000E+00  1.17600033E-03  8.96800252E-03  4.28680121E-02  1.43930040E-01
  3.55630100E-01  4.61248130E-01  1.40206039E-01 -1.54153074E-01  1.05691451E+00
  1.00000000E+00  1.95800005E-02  1.24200003E-01  3.94714010E-01  6.27376016E-01
  1.00000000E+00
Coordinates of each shell                  R   N=         162
  5.15327099E+00  7.58267833E-01 -9.01485541E-02  5.15327099E+00  7.58267833E-01
 -9.01485541E-02  5.15327099E+00  7.58267833E-01 -9.01485541E-02  5.15327099E+00
  7.58267833E-01 -9.01485541E-02  5.15327099E+00  7.58267833E-01 -9.01485541E-02
  5.15327099E+00  7.58267833E-01 -9.01485541E-02  5.15327099E+00  7.58267833E-01
 -9.01485541E-02  5.15327099E+00  7.58267833E-01 -9.01485541E-02  9.91729403E-03
 -4.99180436E-03  3.77226187E-03  9.91729403E-03 -4.99180436E-03  3.77226187E-03
  9.91729403E-03 -4.99180436E-03  3.77226187E-03  9.91729403E-03 -4.99180436E-03
  3.77226187E-03  9.91729403E-03 -4.99180436E-03  3.77226187E-03  9.91729403E-03
 -4.99180436E-03  3.77226187E-03  9.91729403E-03 -4.99180436E-03  3.77226187E-03
  9.91729403E-03 -4.99180436E-03  3.77226187E-03 -5.13343642E+00 -7.68251462E-01
  9.76930837E-02 -5.13343642E+00 -7.68251462E-01  9.76930837E-02 -5.13343642E+00
 -7.68251462E-01  9.76930837E-02 -5.13343642E+00 -7.68251462E-01  9.76930837E-02
 -5.13343642E+00 -7.68251462E-01  9.76930837E-02 -5.13343642E+00 -7.68251462E-01
  9.76930837E-02 -5.13343642E+00 -7.68251462E-01  9.76930837E-02 -5.13343642E+00
 -7.68251462E-01  9.76930837E-02 -3.01813072E+00  1.97794625E+00 -7.42168417E-02
 -3.01813072E+00  1.97794625E+00 -7.42168417E-02 -3.01813072E+00  1.97794625E+00
 -7.42168417E-02 -3.01813072E+00  1.97794625E+00 -7.42168417E-02 -3.01813072E+00
  1.97794625E+00 -7.42168417E-02 -2.24659420E+00 -2.71892143E+00 -1.70579362E-01
 -2.24659420E+00 -2.71892143E+00 -1.70579362E-01 -2.24659420E+00 -2.71892143E+00
 -1.70579362E-01 -2.24659420E+00 -2.71892143E+00 -1.70579362E-01 -2.24659420E+00
 -2.71892143E+00 -1.70579362E-01  2.32533583E+00  2.79839852E+00  1.85233640E-01
  2.32533583E+00  2.79839852E+00  1.85233640E-01  2.32533583E+00  2.79839852E+00
  1.85233640E-01  2.32533583E+00  2.79839852E+00  1.85233640E-01  2.32533583E+00
  2.79839852E+00  1.85233640E-01  2.84389346E+00 -1.97612398E+00  6.01449143E-02
  2.84389346E+00 -1.97612398E+00  6.01449143E-02  2.84389346E+00 -1.97612398E+00
  6.01449143E-02  2.84389346E+00 -1.97612398E+00  6.01449143E-02  2.84389346E+00
 -1.97612398E+00  6.01449143E-02  7.12959525E+00 -1.60769451E+00  8.57793467E-02
  7.12959525E+00 -1.60769451E+00  8.57793467E-02  7.12959525E+00 -1.60769451E+00
  8.57793467E-02  7.12959525E+00 -1.60769451E+00  8.57793467E-02  7.12959525E+00
 -1.60769451E+00  8.57793467E-02 -7.11591725E+00  1.56757759E+00 -1.17482874E-01
 -7.11591725E+00  1.56757759E+00 -1.17482874E-01 -7.11591725E+00  1.56757759E+00
 -1.17482874E-01 -7.11591725E+00  1.56757759E+00 -1.17482874E-01 -7.11591725E+00
  1.56757759E+00 -1.17482874E-01
Num ILSW                                   I              100
ILSW                                       I   N=         100
           0           0           0           0           2           0
           0           0           0           0         402          -1
           5           0           0           0           0           0
           0           0           0           0           0           0
           1           0           0           0           0           0
           0           0      100000           0          -1           0
           0           0           0           0           0           0
           0           0           0           1           0           0
           0 -2000000000           1           0           0           0
           0           0           4          52           0           0
           0           0           5           0           0           0
           0           0           0           9           0           1
           0           0           0           0           0           0
           0           0           0           0           0           0
           0           0           0           0           0           0
           0           0           0           0           0           0
           0           0           0           0
Num RLSW                                   I               52
RLSW                                       R   N=          52
  8.00000000E-01  7.20000000E-01  1.00000000E+00  8.10000000E-01  2.00000000E-01
  0.00000000E+00  0.00000000E+00  1.00000000E+00  0.00000000E+00  0.00000000E+00
  0.00000000E+00  0.00000000E+00  1.00000000E+00  0.00000000E+00  0.00000000E+00
  0.00000000E+00  0.00000000E+00  1.00000000E+00  0.00000000E+00  0.00000000E+00
  0.00000000E+00  0.00000000E+00  1.00000000E+00  0.00000000E+00  0.00000000E+00
  0.00000000E+00  0.00000000E+00  1.00000000E+00  0.00000000E+00  0.00000000E+00
  0.00000000E+00  0.00000000E+00  1.00000000E+00  0.00000000E+00  0.00000000E+00
  0.00000000E+00  0.00000000E+00  0.00000000E+00  1.00000000E+00  1.00000000E+00
  0.00000000E+00  1.00000000E+00  0.00000000E+00  0.00000000E+00  0.00000000E+00
  0.00000000E+00  0.00000000E+00  0.00000000E+00  0.00000000E+00  0.00000000E+00
  0.00000000E+00  0.00000000E+00
ECP-MxAtEC                                 I           250000
ECP-MaxLECP                                I               10
ECP-MaxAtL                                 I          2250000
ECP-MxTECP                                 I         11250000
ECP-LenNCZ                                 I               13
ECP-KFirst                                 I   N=          90
           1           1           1           0           0           0
           0           0           0           4           4           4
           0           0           0           0           0           0
           9           9           9           0           0           0
           0           0           0           0           0           0
           0           0           0           0           0           0
           0           0           0           0           0           0
           0           0           0           0           0           0
           0           0           0           0           0           0
           0           0           0           0           0           0
           0           0           0           0           0           0
           0           0           0           0           0           0
           0           0           0           0           0           0
           0           0           0           0           0           0
           0           0           0           0           0           0
ECP-KLast                                  I   N=          90
           3           3           3           0           0           0
           0           0           0           8           8           8
           0           0           0           0           0           0
          13          13          13           0           0           0
           0           0           0           0           0           0
           0           0           0           0           0           0
           0           0           0           0           0           0
           0           0           0           0           0           0
           0           0           0           0           0           0
           0           0           0           0           0           0
           0           0           0           0           0           0
           0           0           0           0           0           0
           0           0           0           0           0           0
           0           0           0           0           0           0
           0           0           0           0           0           0
ECP-LMax                                   I   N=           9
           2           2           2           0           0           0
           0           0           0
ECP-LPSkip                                 I   N=           9
           0           0           0           1           1           1
           1           1           1
ECP-RNFroz                                 R   N=           9
  1.00000000E+01  1.00000000E+01  1.00000000E+01  0.00000000E+00  0.00000000E+00
  0.00000000E+00  0.00000000E+00  0.00000000E+00  0.00000000E+00
ECP-NLP                                    I   N=          13
           1           2           2           0           1           2
           2           2           0           1           2           2
           2
ECP-CLP1                                   R   N=          13
 -1.00000000E+01 -5.18427816E+01 -9.14291450E+00  3.00000000E+00  1.94825579E+01
  2.07334928E+02  2.35674450E+02 -1.66878439E+02  5.00000000E+00  5.53488220E+00
  1.77841938E+02  1.07420715E+02 -7.19065902E+01
ECP-CLP2                                   R   N=          13
  0.00000000E+00  0.00000000E+00  0.00000000E+00  0.00000000E+00  0.00000000E+00
  0.00000000E+00  0.00000000E+00  0.00000000E+00  0.00000000E+00  0.00000000E+00
  0.00000000E+00  0.00000000E+00  0.00000000E+00
ECP-ZLP                                    R   N=          13
  2.65326391E+02  4.77687815E+01  1.18903334E+01  8.14730696E+01  7.26496724E+01
  3.18128213E+01  6.16644680E+00  5.82683470E+00  5.02966943E+01  6.35089754E+01
  2.60996084E+01  5.60225730E+00  5.21710690E+00
MxBond                                     I                6
NBond                                      I   N=           9
           4           6           4           2           2           2
           2           1           1
IBond                                      I   N=          54
           2           6           7           8           0           0
           1           3           4           5           6           7
           2           4           5           9           0           0
           2           3           0           0           0           0
           2           3           0           0           0           0
           1           2           0           0           0           0
           1           2           0           0           0           0
           1           0           0           0           0           0
           3           0           0           0           0           0
RBond                                      R   N=          54
  1.00000000E+00  1.00000000E+00  1.00000000E+00  2.00000000E+00  0.00000000E+00
  0.00000000E+00  1.00000000E+00  1.00000000E+00  1.00000000E+00  1.00000000E+00
  1.00000000E+00  1.00000000E+00  1.00000000E+00  1.00000000E+00  1.00000000E+00
  2.00000000E+00  0.00000000E+00  0.00000000E+00  1.00000000E+00  1.00000000E+00
  0.00000000E+00  0.00000000E+00  0.00000000E+00  0.00000000E+00  1.00000000E+00
  1.00000000E+00  0.00000000E+00  0.00000000E+00  0.00000000E+00  0.00000000E+00
  1.00000000E+00  1.00000000E+00  0.00000000E+00  0.00000000E+00  0.00000000E+00
  0.00000000E+00  1.00000000E+00  1.00000000E+00  0.00000000E+00  0.00000000E+00
  0.00000000E+00  0.00000000E+00  2.00000000E+00  0.00000000E+00  0.00000000E+00
  0.00000000E+00  0.00000000E+00  0.00000000E+00  2.00000000E+00  0.00000000E+00
  0.00000000E+00  0.00000000E+00  0.00000000E+00  0.00000000E+00
Virial Ratio                               R      2.197480689861334E+00
SCF Energy                                 R     -6.260142644056228E+02
Total Energy                               R     -6.260142644056228E+02
RMS Density                                R      4.760692551904849E-09
Job Status                                 I                1
Nuclear derivative order                   I                0
PCM-NSphere                                I                9
PCM-NGenSphere                             I                9
PCM-NOrd                                   I   N=           9
           1           2           3           4           5           6
           7           8           9
PCM-SphereRadii                            R   N=           9
  3.29993425E+00  3.29993425E+00  3.29993425E+00  3.63772279E+00  3.63772279E+00
  3.63772279E+00  3.63772279E+00  3.63772279E+00  3.63772279E+00
PCM-SphereLoc                              R   N=          27
  5.15327099E+00  7.58267833E-01 -9.01485541E-02  9.91729403E-03 -4.99180436E-03
  3.77226187E-03 -5.13343642E+00 -7.68251462E-01  9.76930837E-02 -3.01813072E+00
  1.97794625E+00 -7.42168417E-02 -2.24659420E+00 -2.71892143E+00 -1.70579362E-01
  2.32533583E+00  2.79839852E+00  1.85233640E-01  2.84389346E+00 -1.97612398E+00
  6.01449143E-02  7.12959525E+00 -1.60769451E+00  8.57793467E-02 -7.11591725E+00
  1.56757759E+00 -1.17482874E-01
External E-field                           R   N=          35
  0.00000000E+00  0.00000000E+00  0.00000000E+00  0.00000000E+00  0.00000000E+00
  0.00000000E+00  0.00000000E+00  0.00000000E+00  0.00000000E+00  0.00000000E+00
  0.00000000E+00  0.00000000E+00  0.00000000E+00  0.00000000E+00  0.00000000E+00
  0.00000000E+00  0.00000000E+00  0.00000000E+00  0.00000000E+00  0.00000000E+00
  0.00000000E+00  0.00000000E+00  0.00000000E+00  0.00000000E+00  0.00000000E+00
  0.00000000E+00  0.00000000E+00  0.00000000E+00  0.00000000E+00  0.00000000E+00
  0.00000000E+00  0.00000000E+00  0.00000000E+00  0.00000000E+00  0.00000000E+00
IOpCl                                      I                0
IROHF                                      I                0
Alpha Orbital Energies                     R   N=         120
 -1.91145791E+01 -1.91027681E+01 -1.91026034E+01 -1.91013500E+01 -1.90977753E+01
 -1.90891988E+01 -2.45959903E+00 -2.44192471E+00 -2.42862284E+00 -1.58989066E+00
 -1.57859610E+00 -1.57332364E+00 -1.56810217E+00 -1.56225995E+00 -1.56113697E+00
 -1.55809378E+00 -1.55032877E+00 -1.54733089E+00 -9.11292958E-01 -8.96228009E-01
 -8.87909615E-01 -8.76435877E-01 -8.43330330E-01 -8.36079165E-01 -3.97531334E-01
 -3.82870222E-01 -3.79512721E-01 -3.69099784E-01 -3.55102575E-01 -3.48954915E-01
 -3.41934820E-01 -3.29891921E-01 -3.26179678E-01 -3.25721857E-01 -3.22827056E-01
 -2.91223055E-01 -2.79166775E-01 -2.71599355E-01 -2.66685057E-01 -2.62031410E-01
 -2.57912199E-01 -2.29327263E-01 -1.12678569E-01 -9.65781114E-02 -8.93421965E-02
 -8.18944226E-02 -7.73124009E-02 -7.39355942E-02 -5.44733304E-02 -4.73410926E-02
 -2.36393389E-02 -1.94788495E-02 -1.45047233E-02 -1.31630442E-02 -1.02926244E-02
 -4.85833956E-03  1.07603942E-02  1.24448337E-02  2.10042205E-02  2.22361893E-02
  2.55162147E-02  2.91379097E-02  4.53478501E-02  4.63730173E-02  5.24813662E-02
  7.51527633E-02  9.03304424E-02  9.67990455E-02  1.08965547E-01  1.17969610E-01
  1.22942962E-01  1.32039289E-01  1.49392213E-01  1.55535070E-01  1.59955641E-01
  1.90376175E-01  1.97694751E-01  2.44476173E-01  3.16136433E-01  3.19106535E-01
  3.36136184E-01  3.37421016E-01  3.43827207E-01  3.51216616E-01  3.63047078E-01
  3.73378552E-01  3.98564278E-01  4.22840396E-01  4.23996418E-01  4.59045871E-01
  4.85226818E-01  5.00347136E-01  5.41009666E-01  6.88395395E-01  7.23426386E-01
  7.49592621E-01  7.55681855E-01  7.69580366E-01  7.93192272E-01  8.00858263E-01
  8.10417852E-01  8.37540739E-01  8.51839806E-01  8.91943510E-01  8.97039190E-01
  9.07758727E-01  9.14431638E-01  9.82868158E-01  1.05705431E+00  1.05944314E+00
  1.08166244E+00  1.35720201E+00  1.40810461E+00  1.54996455E+00  1.70115834E+00
  1.74062714E+00  1.94767264E+00  4.14530775E+00  9.47087788E+00  1.54150688E+01
Alpha MO coefficients                      R   N=       14400
  1.87522476E-04  8.94268625E-07 -2.46999174E-04 -1.09621231E-04 -1.21854592E-04
  8.16151780E-06 -2.65427580E-04  4.37803440E-05  8.48089872E-06  1.70753745E-04
 -6.07527619E-05  8.85558570E-07 -5.52511047E-05 -7.21006690E-06 -7.18520894E-06
 -3.52709799E-05  1.27005583E-04 -2.81427329E-04 -2.18951636E-05  1.95360610E-06
  1.67242269E-04 -1.45767321E-05  1.26759309E-03  3.32353642E-04 -5.80896922E-04
  1.54761974E-04 -1.16496400E-04  4.39312075E-06  1.26392045E-03  5.29372767E-06
 -2.27067112E-06 -9.77571316E-06  2.19293307E-04 -1.94877317E-05 -7.85666998E-05
  2.97997678E-06 -5.21698509E-06  2.96315960E-05 -1.23902360E-04 -5.93284512E-04
  3.40113399E-05 -4.15133379E-05  7.84531661E-04 -1.72655392E-03  2.95337726E-04
  7.09042321E-05  7.74074183E-04 -3.09870703E-05 -1.38854855E-05 -4.86096720E-06
  5.15283364E-04 -4.50034088E-04 -3.83327398E-06  8.38095301E-05  5.05620334E-05
  7.58975561E-06 -2.68069930E-05 -1.93349628E-06 -3.38088230E-06 -3.11879667E-05
  1.28118217E-05 -6.36127595E-05  2.38039434E-06  2.06635715E-05  2.10028878E-04
 -4.26492227E-04  3.16348082E-04  3.29931436E-04 -1.19167250E-03  4.22962294E-05
 -3.18929795E-06  6.80645025E-08 -5.99339327E-04  2.73899807E-04 -1.11657741E-05
 -7.41990697E-05 -1.93713958E-05  1.50365061E-04 -4.27216349E-05 -2.10631752E-05
  1.75906347E-06  2.99643514E-04  2.38653821E-05 -1.36488152E-05 -1.62429236E-04
 -3.31474363E-05  1.01807018E-04  1.04739502E-07  5.27096064E-05  2.65644694E-07
 -1.64137024E-04 -4.98263124E-05  1.10790250E-06  9.98837635E-01  6.58463224E-03
 -4.87326564E-03 -1.68599208E-04  8.76879027E-04 -3.93087369E-05  4.54154745E-04
 -9.69887652E-04  3.25109817E-05 -1.15853071E-04 -5.48786744E-05 -2.27999671E-05
  4.95427602E-05  4.79749921E-06 -2.46819417E-06 -1.16293132E-04 -2.66872430E-05
  1.86416195E-05  3.02514171E-05  6.74397669E-05 -2.57634574E-04  2.37357087E-06
 -3.03394321E-07  1.84785810E-06 -5.90914606E-05  8.49493621E-05 -2.25492283E-05