 Entering Gaussian System, Link 0=g16
 Input=e-3-tio2_cation_scf_g09.com
 Output=e-3-tio2_cation_scf_g09.log
 Initial command:
 /home/rheinheimer/Apps//g16/l1.exe "/home/rheinheimer/Apps/scrgauss/Gau-297368.inp" -scrdir="/home/rheinheimer/Apps/scrgauss/"
 Entering Link 1 = /home/rheinheimer/Apps//g16/l1.exe PID=    297370.
  
 Copyright (c) 1988,1990,1992,1993,1995,1998,2003,2009,2016,
            Gaussian, Inc.  All Rights Reserved.
  
 This is part of the Gaussian(R) 16 program.  It is based on
 the Gaussian(R) 09 system (copyright 2009, Gaussian, Inc.),
 the Gaussian(R) 03 system (copyright 2003, Gaussian, Inc.),
 the Gaussian(R) 98 system (copyright 1998, Gaussian, Inc.),
 the Gaussian(R) 94 system (copyright 1995, Gaussian, Inc.),
 the Gaussian 92(TM) system (copyright 1992, Gaussian, Inc.),
 the Gaussian 90(TM) system (copyright 1990, Gaussian, Inc.),
 the Gaussian 88(TM) system (copyright 1988, Gaussian, Inc.),
 the Gaussian 86(TM) system (copyright 1986, Carnegie Mellon
 University), and the Gaussian 82(TM) system (copyright 1983,
 Carnegie Mellon University). Gaussian is a federally registered
 trademark of Gaussian, Inc.
  
 This software contains proprietary and confidential information,
 including trade secrets, belonging to Gaussian, Inc.
  
 This software is provided under written license and may be
 used, copied, transmitted, or stored only in accord with that
 written license.
  
 The following legend is applicable only to US Government
 contracts under FAR:
  
                    RESTRICTED RIGHTS LEGEND
  
 Use, reproduction and disclosure by the US Government is
 subject to restrictions as set forth in subparagraphs (a)
 and (c) of the Commercial Computer Software - Restricted
 Rights clause in FAR 52.227-19.
  
 Gaussian, Inc.
 340 Quinnipiac St., Bldg. 40, Wallingford CT 06492
  
  
 ---------------------------------------------------------------
 Warning -- This program may not be used in any manner that
 competes with the business of Gaussian, Inc. or will provide
 assistance to any competitor of Gaussian, Inc.  The licensee
 of this program is prohibited from giving any competitor of
 Gaussian, Inc. access to this program.  By using this program,
 the user acknowledges that Gaussian, Inc. is engaged in the
 business of creating and licensing software in the field of
 computational chemistry and represents and warrants to the
 licensee that it is not a competitor of Gaussian, Inc. and that
 it will not use this program in any manner prohibited above.
 ---------------------------------------------------------------
  

 Cite this work as:
 Gaussian 16, Revision A.03,
 M. J. Frisch, G. W. Trucks, H. B. Schlegel, G. E. Scuseria, 
 M. A. Robb, J. R. Cheeseman, G. Scalmani, V. Barone, 
 G. A. Petersson, H. Nakatsuji, X. Li, M. Caricato, A. V. Marenich, 
 J. Bloino, B. G. Janesko, R. Gomperts, B. Mennucci, H. P. Hratchian, 
 J. V. Ortiz, A. F. Izmaylov, J. L. Sonnenberg, D. Williams-Young, 
 F. Ding, F. Lipparini, F. Egidi, J. Goings, B. Peng, A. Petrone, 
 T. Henderson, D. Ranasinghe, V. G. Zakrzewski, J. Gao, N. Rega, 
 G. Zheng, W. Liang, M. Hada, M. Ehara, K. Toyota, R. Fukuda, 
 J. Hasegawa, M. Ishida, T. Nakajima, Y. Honda, O. Kitao, H. Nakai, 
 T. Vreven, K. Throssell, J. A. Montgomery, Jr., J. E. Peralta, 
 F. Ogliaro, M. J. Bearpark, J. J. Heyd, E. N. Brothers, K. N. Kudin, 
 V. N. Staroverov, T. A. Keith, R. Kobayashi, J. Normand, 
 K. Raghavachari, A. P. Rendell, J. C. Burant, S. S. Iyengar, 
 J. Tomasi, M. Cossi, J. M. Millam, M. Klene, C. Adamo, R. Cammi, 
 J. W. Ochterski, R. L. Martin, K. Morokuma, O. Farkas, 
 J. B. Foresman, and D. J. Fox, Gaussian, Inc., Wallingford CT, 2016.
 
 ******************************************
 Gaussian 16:  ES64L-G16RevA.03 25-Dec-2016
                31-May-2021 
 ******************************************
 %nproc=8
 Will use up to    8 processors via shared memory.
 %Mem=4GB
 ----------------------------------------------------------------------
 #t B3LYP/LANL2DZ # SCRF=(Solvent=Ethanol) # Gfinput IOP(6/7=3) Pop=hir
 shfeld Density Test # Units(Ang,Deg)
 ----------------------------------------------------------------------
 ----------
 3-tio2.pdb
 ----------
 Symbolic Z-matrix:
 Charge =  1 Multiplicity = 2
 Ti                   -1   -1.641     1.281    -0.014 
 Ti                   -1    1.10771   1.4132   -0.03946 
 Ti                   -1    3.85641   1.54539  -0.06492 
 O                    -1    2.59825   0.24907   0.2663 
 O                    -1    2.43627   2.63074  -0.53887 
 O                    -1   -0.25649   0.15493   0.47724 
 O                    -1   -0.2814    2.55791  -0.35239 
 O                    -1   -2.55713   2.59863  -0.32145 
 O                    -1    4.7771    0.2363    0.21798 
 
                    Distance matrix (angstroms):
                    1          2          3          4          5
     1  Ti   0.000000
     2  Ti   2.752000   0.000000
     3  Ti   5.504000   2.752000   0.000000
     4  O    4.372031   1.915826   1.836609   0.000000
     5  O    4.326823   1.870000   1.849165   2.519302   0.000000
     6  O    1.851000   1.926459   4.375305   2.864071   3.796453
     7  O    1.895660   1.827000   4.269583   3.742449   2.725034
     8  O    1.634000   3.862094   6.504506   5.695942   4.998231
     9  O    6.506700   3.862094   1.625240   2.179422   3.433019
                    6          7          8          9
     6  O    0.000000
     7  O    2.542288   0.000000
     8  O    3.449994   2.276301   0.000000
     9  O    5.040918   5.594962   7.724144   0.000000
 Framework group  C1[X(O6Ti3)]
 Deg. of freedom    21
                         Standard orientation:                         
 ---------------------------------------------------------------------
 Center     Atomic      Atomic             Coordinates (Angstroms)
 Number     Number       Type             X           Y           Z
 ---------------------------------------------------------------------
      1         22           0        2.726994    0.401258   -0.047705
      2         22           0        0.005248   -0.002642    0.001996
      3         22           0       -2.716498   -0.406541    0.051697
      4          8           0       -1.597126    1.046684   -0.039274
      5          8           0       -1.188846   -1.438791   -0.090267
      6          8           0        1.230515    1.480849    0.098021
      7          8           0        1.504924   -1.045720    0.031827
      8          8           0        3.772819   -0.850755    0.045392
      9          8           0       -3.765581    0.829526   -0.062169
 ---------------------------------------------------------------------
 Rotational constants (GHZ):           3.5585257           0.3919366           0.3533754
 AO basis set in the form of general basis input (Overlap normalization):
      1 0
 S   3 1.00       0.000000000000
      0.1098000000D+01 -0.1023676994D+00
      0.4178000000D+00 -0.3753172148D+00
      0.8720000000D-01  0.1215423149D+01
 S   3 1.00       0.000000000000
      0.4372000000D+01 -0.3637098367D+00
      0.1098000000D+01  0.8184533826D+00
      0.4178000000D+00  0.4184526423D+00
 S   1 1.00       0.000000000000
      0.3140000000D-01  0.1000000000D+01
 P   3 1.00       0.000000000000
      0.1252000000D+02 -0.4569080054D-01
      0.1491000000D+01  0.6203313074D+00
      0.4859000000D+00  0.4765329057D+00
 P   1 1.00       0.000000000000
      0.5300000000D-01  0.1000000000D+01
 P   1 1.00       0.000000000000
      0.1600000000D-01  0.1000000000D+01
 D   4 1.00       0.000000000000
      0.2021000000D+02  0.3416819898D-01
      0.5495000000D+01  0.1710005949D+00
      0.1699000000D+01  0.4405848869D+00
      0.4840000000D+00  0.6114245818D+00
 D   1 1.00       0.000000000000
      0.1157000000D+00  0.1000000000D+01
 ****
      2 0
 S   3 1.00       0.000000000000
      0.1098000000D+01 -0.1023676994D+00
      0.4178000000D+00 -0.3753172148D+00
      0.8720000000D-01  0.1215423149D+01
 S   3 1.00       0.000000000000
      0.4372000000D+01 -0.3637098367D+00
      0.1098000000D+01  0.8184533826D+00
      0.4178000000D+00  0.4184526423D+00
 S   1 1.00       0.000000000000
      0.3140000000D-01  0.1000000000D+01
 P   3 1.00       0.000000000000
      0.1252000000D+02 -0.4569080054D-01
      0.1491000000D+01  0.6203313074D+00
      0.4859000000D+00  0.4765329057D+00
 P   1 1.00       0.000000000000
      0.5300000000D-01  0.1000000000D+01
 P   1 1.00       0.000000000000
      0.1600000000D-01  0.1000000000D+01
 D   4 1.00       0.000000000000
      0.2021000000D+02  0.3416819898D-01
      0.5495000000D+01  0.1710005949D+00
      0.1699000000D+01  0.4405848869D+00
      0.4840000000D+00  0.6114245818D+00
 D   1 1.00       0.000000000000
      0.1157000000D+00  0.1000000000D+01
 ****
      3 0
 S   3 1.00       0.000000000000
      0.1098000000D+01 -0.1023676994D+00
      0.4178000000D+00 -0.3753172148D+00
      0.8720000000D-01  0.1215423149D+01
 S   3 1.00       0.000000000000
      0.4372000000D+01 -0.3637098367D+00
      0.1098000000D+01  0.8184533826D+00
      0.4178000000D+00  0.4184526423D+00
 S   1 1.00       0.000000000000
      0.3140000000D-01  0.1000000000D+01
 P   3 1.00       0.000000000000
      0.1252000000D+02 -0.4569080054D-01
      0.1491000000D+01  0.6203313074D+00
      0.4859000000D+00  0.4765329057D+00
 P   1 1.00       0.000000000000
      0.5300000000D-01  0.1000000000D+01
 P   1 1.00       0.000000000000
      0.1600000000D-01  0.1000000000D+01
 D   4 1.00       0.000000000000
      0.2021000000D+02  0.3416819898D-01
      0.5495000000D+01  0.1710005949D+00
      0.1699000000D+01  0.4405848869D+00
      0.4840000000D+00  0.6114245818D+00
 D   1 1.00       0.000000000000
      0.1157000000D+00  0.1000000000D+01
 ****
      4 0
 S   7 1.00       0.000000000000
      0.7817000000D+04  0.1176000331D-02
      0.1176000000D+04  0.8968002523D-02
      0.2732000000D+03  0.4286801206D-01
      0.8117000000D+02  0.1439300405D+00
      0.2718000000D+02  0.3556301000D+00
      0.9532000000D+01  0.4612481297D+00
      0.3414000000D+01  0.1402060394D+00
 S   2 1.00       0.000000000000
      0.9532000000D+01 -0.1541530739D+00
      0.9398000000D+00  0.1056914507D+01
 S   1 1.00       0.000000000000
      0.2846000000D+00  0.1000000000D+01
 P   4 1.00       0.000000000000
      0.3518000000D+02  0.1958000050D-01
      0.7904000000D+01  0.1242000032D+00
      0.2305000000D+01  0.3947140101D+00
      0.7171000000D+00  0.6273760161D+00
 P   1 1.00       0.000000000000
      0.2137000000D+00  0.1000000000D+01
 ****
      5 0
 S   7 1.00       0.000000000000
      0.7817000000D+04  0.1176000331D-02
      0.1176000000D+04  0.8968002523D-02
      0.2732000000D+03  0.4286801206D-01
      0.8117000000D+02  0.1439300405D+00
      0.2718000000D+02  0.3556301000D+00
      0.9532000000D+01  0.4612481297D+00
      0.3414000000D+01  0.1402060394D+00
 S   2 1.00       0.000000000000
      0.9532000000D+01 -0.1541530739D+00
      0.9398000000D+00  0.1056914507D+01
 S   1 1.00       0.000000000000
      0.2846000000D+00  0.1000000000D+01
 P   4 1.00       0.000000000000
      0.3518000000D+02  0.1958000050D-01
      0.7904000000D+01  0.1242000032D+00
      0.2305000000D+01  0.3947140101D+00
      0.7171000000D+00  0.6273760161D+00
 P   1 1.00       0.000000000000
      0.2137000000D+00  0.1000000000D+01
 ****
      6 0
 S   7 1.00       0.000000000000
      0.7817000000D+04  0.1176000331D-02
      0.1176000000D+04  0.8968002523D-02
      0.2732000000D+03  0.4286801206D-01
      0.8117000000D+02  0.1439300405D+00
      0.2718000000D+02  0.3556301000D+00
      0.9532000000D+01  0.4612481297D+00
      0.3414000000D+01  0.1402060394D+00
 S   2 1.00       0.000000000000
      0.9532000000D+01 -0.1541530739D+00
      0.9398000000D+00  0.1056914507D+01
 S   1 1.00       0.000000000000
      0.2846000000D+00  0.1000000000D+01
 P   4 1.00       0.000000000000
      0.3518000000D+02  0.1958000050D-01
      0.7904000000D+01  0.1242000032D+00
      0.2305000000D+01  0.3947140101D+00
      0.7171000000D+00  0.6273760161D+00
 P   1 1.00       0.000000000000
      0.2137000000D+00  0.1000000000D+01
 ****
      7 0
 S   7 1.00       0.000000000000
      0.7817000000D+04  0.1176000331D-02
      0.1176000000D+04  0.8968002523D-02
      0.2732000000D+03  0.4286801206D-01
      0.8117000000D+02  0.1439300405D+00
      0.2718000000D+02  0.3556301000D+00
      0.9532000000D+01  0.4612481297D+00
      0.3414000000D+01  0.1402060394D+00
 S   2 1.00       0.000000000000
      0.9532000000D+01 -0.1541530739D+00
      0.9398000000D+00  0.1056914507D+01
 S   1 1.00       0.000000000000
      0.2846000000D+00  0.1000000000D+01
 P   4 1.00       0.000000000000
      0.3518000000D+02  0.1958000050D-01
      0.7904000000D+01  0.1242000032D+00
      0.2305000000D+01  0.3947140101D+00
      0.7171000000D+00  0.6273760161D+00
 P   1 1.00       0.000000000000
      0.2137000000D+00  0.1000000000D+01
 ****
      8 0
 S   7 1.00       0.000000000000
      0.7817000000D+04  0.1176000331D-02
      0.1176000000D+04  0.8968002523D-02
      0.2732000000D+03  0.4286801206D-01
      0.8117000000D+02  0.1439300405D+00
      0.2718000000D+02  0.3556301000D+00
      0.9532000000D+01  0.4612481297D+00
      0.3414000000D+01  0.1402060394D+00
 S   2 1.00       0.000000000000
      0.9532000000D+01 -0.1541530739D+00
      0.9398000000D+00  0.1056914507D+01
 S   1 1.00       0.000000000000
      0.2846000000D+00  0.1000000000D+01
 P   4 1.00       0.000000000000
      0.3518000000D+02  0.1958000050D-01
      0.7904000000D+01  0.1242000032D+00
      0.2305000000D+01  0.3947140101D+00
      0.7171000000D+00  0.6273760161D+00
 P   1 1.00       0.000000000000
      0.2137000000D+00  0.1000000000D+01
 ****
      9 0
 S   7 1.00       0.000000000000
      0.7817000000D+04  0.1176000331D-02
      0.1176000000D+04  0.8968002523D-02
      0.2732000000D+03  0.4286801206D-01
      0.8117000000D+02  0.1439300405D+00
      0.2718000000D+02  0.3556301000D+00
      0.9532000000D+01  0.4612481297D+00
      0.3414000000D+01  0.1402060394D+00
 S   2 1.00       0.000000000000
      0.9532000000D+01 -0.1541530739D+00
      0.9398000000D+00  0.1056914507D+01
 S   1 1.00       0.000000000000
      0.2846000000D+00  0.1000000000D+01
 P   4 1.00       0.000000000000
      0.3518000000D+02  0.1958000050D-01
      0.7904000000D+01  0.1242000032D+00
      0.2305000000D+01  0.3947140101D+00
      0.7171000000D+00  0.6273760161D+00
 P   1 1.00       0.000000000000
      0.2137000000D+00  0.1000000000D+01
 ****

 Effective core potential in the form of general ECP input:
      1 0
 Ti1-ECP   2 10
 D component
  3
  1      265.3263909      -10.00000000    0.00000000
  2       47.7687815      -51.84278160    0.00000000
  2       11.8903334       -9.14291450    0.00000000
 S-D projection
  5
  0       81.4730696        3.00000000    0.00000000
  1       72.6496724       19.48255790    0.00000000
  2       31.8128213      207.33492790    0.00000000
  2        6.1664468      235.67445010    0.00000000
  2        5.8268347     -166.87843870    0.00000000
 P-D projection
  5
  0       50.2966943        5.00000000    0.00000000
  1       63.5089754        5.53488220    0.00000000
  2       26.0996084      177.84193840    0.00000000
  2        5.6022573      107.42071530    0.00000000
  2        5.2171069      -71.90659020    0.00000000
      2 0
 Ti2-ECP   2 10
 D component
  3
  1      265.3263909      -10.00000000    0.00000000
  2       47.7687815      -51.84278160    0.00000000
  2       11.8903334       -9.14291450    0.00000000
 S-D projection
  5
  0       81.4730696        3.00000000    0.00000000
  1       72.6496724       19.48255790    0.00000000
  2       31.8128213      207.33492790    0.00000000
  2        6.1664468      235.67445010    0.00000000
  2        5.8268347     -166.87843870    0.00000000
 P-D projection
  5
  0       50.2966943        5.00000000    0.00000000
  1       63.5089754        5.53488220    0.00000000
  2       26.0996084      177.84193840    0.00000000
  2        5.6022573      107.42071530    0.00000000
  2        5.2171069      -71.90659020    0.00000000
      3 0
 Ti3-ECP   2 10
 D component
  3
  1      265.3263909      -10.00000000    0.00000000
  2       47.7687815      -51.84278160    0.00000000
  2       11.8903334       -9.14291450    0.00000000
 S-D projection
  5
  0       81.4730696        3.00000000    0.00000000
  1       72.6496724       19.48255790    0.00000000
  2       31.8128213      207.33492790    0.00000000
  2        6.1664468      235.67445010    0.00000000
  2        5.8268347     -166.87843870    0.00000000
 P-D projection
  5
  0       50.2966943        5.00000000    0.00000000
  1       63.5089754        5.53488220    0.00000000
  2       26.0996084      177.84193840    0.00000000
  2        5.6022573      107.42071530    0.00000000
  2        5.2171069      -71.90659020    0.00000000
 
   120 basis functions,   306 primitive gaussians,   126 cartesian basis functions
    42 alpha electrons       41 beta electrons
       nuclear repulsion energy       586.5669931727 Hartrees.
 NAtoms=    9 NActive=    9 NUniq=    9 SFac= 1.00D+00 NAtFMM=   60 NAOKFM=F Big=F
 ------------------------------------------------------------------------------
 Polarizable Continuum Model (PCM)
 =================================
 Model                : PCM.
 Atomic radii         : UFF (Universal Force Field).
 Polarization charges : Total charges.
 Charge compensation  : None.
 Solution method      : On-the-fly selection.
 Cavity type          : Scaled VdW (van der Waals Surface) (Alpha=1.100).
 Cavity algorithm     : GePol (No added spheres)
                        Default sphere list used, NSphG=    9.
                        Lebedev-Laikov grids with approx.  5.0 points / Ang**2.
                        Smoothing algorithm: York/Karplus (Gamma=1.0000).
                        Polarization charges: spherical gaussians, with
                                              point-specific exponents (IZeta= 3).
                        Self-potential: point-specific (ISelfS= 7).
                        Self-field    : sphere-specific E.n sum rule (ISelfD= 2).
 Solvent              : Ethanol, Eps=  24.852000 Eps(inf)=   1.852593
 ------------------------------------------------------------------------------
 Spheres list:
 ISph  on   Nord     Re0    Alpha      Xe            Ye            Ze
    1  Ti      1    1.5875  1.100      2.726994      0.401258     -0.047705
    2  Ti      2    1.5875  1.100      0.005248     -0.002642      0.001996
    3  Ti      3    1.5875  1.100     -2.716498     -0.406541      0.051697
    4   O      4    1.7500  1.100     -1.597126      1.046684     -0.039274
    5   O      5    1.7500  1.100     -1.188846     -1.438791     -0.090267
    6   O      6    1.7500  1.100      1.230515      1.480849      0.098021
    7   O      7    1.7500  1.100      1.504924     -1.045720      0.031827
    8   O      8    1.7500  1.100      3.772819     -0.850755      0.045392
    9   O      9    1.7500  1.100     -3.765581      0.829526     -0.062169
 ------------------------------------------------------------------------------
   1 Symmetry operations used in ECPInt.
 ECPInt:  NShTT=    1485 NPrTT=   10224 LenC2=    1449 LenP2D=    7176.
 LDataN:  DoStor=T MaxTD1= 4 Len=   56
 ExpMin= 1.60D-02 ExpMax= 7.82D+03 ExpMxC= 2.73D+02 IAcc=3 IRadAn=         5 AccDes= 0.00D+00
 Harris functional with IExCor=  402 and IRadAn=       5 diagonalized for initial guess.
 HarFok:  IExCor=  402 AccDes= 0.00D+00 IRadAn=         5 IDoV= 1 UseB2=F ITyADJ=14
 ICtDFT=  3500011 ScaDFX=  1.000000  1.000000  1.000000  1.000000
 FoFCou: FMM=F IPFlag=           0 FMFlag=      100000 FMFlg1=           0
         NFxFlg=           0 DoJE=T BraDBF=F KetDBF=T FulRan=T
         wScrn=  0.000000 ICntrl=       500 IOpCl=  0 I1Cent=   200000004 NGrid=           0
         NMat0=    1 NMatS0=      1 NMatT0=    0 NMatD0=    1 NMtDS0=    0 NMtDT0=    0
 Petite list used in FoFCou.
 Initial guess <Sx>= 0.0000 <Sy>= 0.0000 <Sz>= 0.5000 <S**2>= 0.7500 S= 0.5000
 Inv3:  Mode=1 IEnd=     4657548.
 Iteration    1 A*A^-1 deviation from unit magnitude is 3.77D-15 for    550.
 Iteration    1 A*A^-1 deviation from orthogonality  is 1.17D-15 for    256    103.
 Iteration    1 A^-1*A deviation from unit magnitude is 3.55D-15 for    550.
 Iteration    1 A^-1*A deviation from orthogonality  is 1.33D-15 for   1083   1014.
 EnCoef did     6 forward-backward iterations
 Error on total polarization charges =  0.02484
 SCF Done:  E(UB3LYP) =  -625.788709537     A.U. after   25 cycles
            NFock= 25  Conv=0.33D-08     -V/T= 2.1981
 <Sx>= 0.0000 <Sy>= 0.0000 <Sz>= 0.5000 <S**2>= 0.7879 S= 0.5188
 <L.S>=  0.00000000000    
 Annihilation of the first spin contaminant:
 S**2 before annihilation     0.7879,   after     0.7511

 **********************************************************************

            Population analysis using the SCF density.

 **********************************************************************

 Orbital symmetries:
 Alpha Orbitals:
       Occupied  (A) (A) (A) (A) (A) (A) (A) (A) (A) (A) (A) (A)
                 (A) (A) (A) (A) (A) (A) (A) (A) (A) (A) (A) (A)
                 (A) (A) (A) (A) (A) (A) (A) (A) (A) (A) (A) (A)
                 (A) (A) (A) (A) (A) (A)
       Virtual   (A) (A) (A) (A) (A) (A) (A) (A) (A) (A) (A) (A)
                 (A) (A) (A) (A) (A) (A) (A) (A) (A) (A) (A) (A)
                 (A) (A) (A) (A) (A) (A) (A) (A) (A) (A) (A) (A)
                 (A) (A) (A) (A) (A) (A) (A) (A) (A) (A) (A) (A)
                 (A) (A) (A) (A) (A) (A) (A) (A) (A) (A) (A) (A)
                 (A) (A) (A) (A) (A) (A) (A) (A) (A) (A) (A) (A)
                 (A) (A) (A) (A) (A) (A)
 Beta  Orbitals:
       Occupied  (A) (A) (A) (A) (A) (A) (A) (A) (A) (A) (A) (A)
                 (A) (A) (A) (A) (A) (A) (A) (A) (A) (A) (A) (A)
                 (A) (A) (A) (A) (A) (A) (A) (A) (A) (A) (A) (A)
                 (A) (A) (A) (A) (A)
       Virtual   (A) (A) (A) (A) (A) (A) (A) (A) (A) (A) (A) (A)
                 (A) (A) (A) (A) (A) (A) (A) (A) (A) (A) (A) (A)
                 (A) (A) (A) (A) (A) (A) (A) (A) (A) (A) (A) (A)
                 (A) (A) (A) (A) (A) (A) (A) (A) (A) (A) (A) (A)
                 (A) (A) (A) (A) (A) (A) (A) (A) (A) (A) (A) (A)
                 (A) (A) (A) (A) (A) (A) (A) (A) (A) (A) (A) (A)
                 (A) (A) (A) (A) (A) (A) (A)
 The electronic state is 2-A.
 Alpha  occ. eigenvalues --  -19.20757 -19.18171 -19.18038 -19.14803 -19.14059
 Alpha  occ. eigenvalues --  -19.13840  -2.50425  -2.49656  -2.47953  -1.63917
 Alpha  occ. eigenvalues --   -1.62686  -1.61940  -1.61758  -1.61745  -1.61109
 Alpha  occ. eigenvalues --   -1.60527  -1.60017  -1.59691  -0.99297  -0.95835
 Alpha  occ. eigenvalues --   -0.95332  -0.92878  -0.91209  -0.88228  -0.48589
 Alpha  occ. eigenvalues --   -0.43719  -0.43302  -0.42981  -0.41119  -0.40951
 Alpha  occ. eigenvalues --   -0.39475  -0.38616  -0.38114  -0.37907  -0.36848
 Alpha  occ. eigenvalues --   -0.34991  -0.34206  -0.32615  -0.32273  -0.31142
 Alpha  occ. eigenvalues --   -0.30421  -0.29783
 Alpha virt. eigenvalues --   -0.14679  -0.13799  -0.12890  -0.12290  -0.12183
 Alpha virt. eigenvalues --   -0.11885  -0.10402  -0.09306  -0.07318  -0.07061
 Alpha virt. eigenvalues --   -0.05528  -0.05419  -0.04134  -0.03660   0.00439
 Alpha virt. eigenvalues --    0.00767   0.01124   0.01477   0.01991   0.02094
 Alpha virt. eigenvalues --    0.03140   0.04143   0.04207   0.04694   0.05935
 Alpha virt. eigenvalues --    0.08463   0.09655   0.09753   0.10505   0.12177
 Alpha virt. eigenvalues --    0.13572   0.14228   0.14498   0.17702   0.18269
 Alpha virt. eigenvalues --    0.22316   0.29748   0.29951   0.31528   0.31869
 Alpha virt. eigenvalues --    0.32627   0.33414   0.34668   0.35395   0.38241
 Alpha virt. eigenvalues --    0.39983   0.40661   0.44360   0.46102   0.48274
 Alpha virt. eigenvalues --    0.51508   0.65278   0.67945   0.70908   0.72133
 Alpha virt. eigenvalues --    0.72757   0.74914   0.76472   0.77055   0.79262
 Alpha virt. eigenvalues --    0.80440   0.85680   0.86001   0.87217   0.87649
 Alpha virt. eigenvalues --    0.95439   1.00433   1.02915   1.04534   1.31808
 Alpha virt. eigenvalues --    1.36215   1.49441   1.66767   1.69715   1.90119
 Alpha virt. eigenvalues --    4.11841   9.44653  15.38557
  Beta  occ. eigenvalues --  -19.19462 -19.17492 -19.16875 -19.14752 -19.13758
  Beta  occ. eigenvalues --  -19.13679  -2.50873  -2.50086  -2.48165  -1.64298
  Beta  occ. eigenvalues --   -1.63133  -1.62547  -1.62214  -1.62085  -1.61535
  Beta  occ. eigenvalues --   -1.60762  -1.60254  -1.59880  -0.96481  -0.94157
  Beta  occ. eigenvalues --   -0.93787  -0.91986  -0.89421  -0.87393  -0.43968
  Beta  occ. eigenvalues --   -0.43050  -0.42305  -0.41263  -0.39968  -0.39198
  Beta  occ. eigenvalues --   -0.38921  -0.37726  -0.37278  -0.37116  -0.36508
  Beta  occ. eigenvalues --   -0.33552  -0.31477  -0.31197  -0.30650  -0.29471
  Beta  occ. eigenvalues --   -0.28993
  Beta virt. eigenvalues --   -0.22255  -0.15003  -0.14109  -0.13119  -0.12445
  Beta virt. eigenvalues --   -0.12299  -0.12064  -0.10296  -0.09242  -0.07264
  Beta virt. eigenvalues --   -0.06650  -0.05567  -0.05342  -0.03759  -0.03490
  Beta virt. eigenvalues --    0.00483   0.00811   0.01148   0.01489   0.02038
  Beta virt. eigenvalues --    0.02168   0.03389   0.04158   0.04237   0.04752
  Beta virt. eigenvalues --    0.06109   0.08543   0.09704   0.09823   0.10564
  Beta virt. eigenvalues --    0.12216   0.13728   0.14409   0.14738   0.17859
  Beta virt. eigenvalues --    0.18400   0.22393   0.29837   0.30117   0.31625
  Beta virt. eigenvalues --    0.31859   0.32653   0.33537   0.34748   0.35436
  Beta virt. eigenvalues --    0.38222   0.40141   0.40807   0.44475   0.46223
  Beta virt. eigenvalues --    0.48303   0.51650   0.66048   0.68799   0.71640
  Beta virt. eigenvalues --    0.72521   0.73817   0.75438   0.77048   0.77480
  Beta virt. eigenvalues --    0.80729   0.81508   0.86403   0.86627   0.87712
  Beta virt. eigenvalues --    0.88075   0.95628   1.01730   1.03232   1.05220
  Beta virt. eigenvalues --    1.32554   1.37011   1.50604   1.67111   1.70486
  Beta virt. eigenvalues --    1.90747   4.12241   9.45054  15.39356
     Alpha Molecular Orbital Coefficients:
                           1         2         3         4         5
                           O         O         O         O         O
     Eigenvalues --   -19.20757 -19.18171 -19.18038 -19.14803 -19.14059
   1 1   Ti 1S          0.00027   0.00019   0.00023  -0.00033   0.00174
   2        2S          0.00005   0.00000   0.00007  -0.00013   0.00066
   3        3S          0.00078  -0.00026   0.00031   0.00118  -0.00076
   4        4PX         0.00004  -0.00011   0.00001   0.00000   0.00019
   5        4PY         0.00001  -0.00012   0.00000  -0.00000  -0.00018
   6        4PZ         0.00000   0.00001   0.00000  -0.00000   0.00003
   7        5PX        -0.00050  -0.00026  -0.00025  -0.00052   0.00074
   8        5PY         0.00046   0.00004   0.00013  -0.00062  -0.00013
   9        5PZ         0.00000   0.00001  -0.00000  -0.00003   0.00008
  10        6PX        -0.00008   0.00017   0.00006  -0.00006  -0.00020
  11        6PY        -0.00006  -0.00006  -0.00003   0.00004   0.00014
  12        6PZ        -0.00001   0.00000   0.00000   0.00001  -0.00004
  13        7D 0       -0.00002  -0.00006   0.00000   0.00001  -0.00003
  14        7D+1       -0.00000  -0.00001   0.00000  -0.00001  -0.00000
  15        7D-1       -0.00000  -0.00001  -0.00000   0.00000   0.00000
  16        7D+2       -0.00004  -0.00004  -0.00000  -0.00001   0.00002
  17        7D-2        0.00002   0.00013  -0.00000  -0.00002  -0.00006
  18        8D 0       -0.00007  -0.00029  -0.00006   0.00013  -0.00054
  19        8D+1        0.00001  -0.00002   0.00001   0.00003   0.00001
  20        8D-1        0.00001   0.00000   0.00001  -0.00003   0.00000
  21        8D+2        0.00022   0.00016   0.00011  -0.00006   0.00009
  22        8D-2       -0.00043  -0.00002  -0.00017   0.00065  -0.00137
  23 2   Ti 1S          0.00131   0.00130  -0.00020   0.00126  -0.00024
  24        2S          0.00028   0.00034  -0.00003   0.00029  -0.00005
  25        3S         -0.00045  -0.00058   0.00006  -0.00049   0.00015
  26        4PX        -0.00009   0.00016  -0.00000  -0.00008   0.00001
  27        4PY         0.00007  -0.00012   0.00003  -0.00013  -0.00003
  28        4PZ        -0.00000   0.00000   0.00000  -0.00001   0.00000
  29        5PX        -0.00135   0.00130  -0.00040  -0.00142   0.00045
  30        5PY        -0.00007   0.00001   0.00025  -0.00010  -0.00023
  31        5PZ         0.00000  -0.00000   0.00004   0.00001  -0.00004
  32        6PX        -0.00000  -0.00001  -0.00025  -0.00024   0.00025
  33        6PY        -0.00018   0.00022  -0.00003   0.00010   0.00003
  34        6PZ         0.00002  -0.00002  -0.00002   0.00002   0.00002
  35        7D 0       -0.00009  -0.00008  -0.00001  -0.00008  -0.00000
  36        7D+1        0.00000   0.00000  -0.00000   0.00001  -0.00000
  37        7D-1       -0.00001  -0.00001  -0.00001   0.00001  -0.00000
  38        7D+2        0.00003   0.00003   0.00001  -0.00004   0.00001
  39        7D-2       -0.00013  -0.00013  -0.00001   0.00012  -0.00001
  40        8D 0       -0.00064  -0.00061   0.00014  -0.00061   0.00016
  41        8D+1        0.00004   0.00003  -0.00000   0.00009  -0.00001
  42        8D-1       -0.00005  -0.00004  -0.00004   0.00009  -0.00004
  43        8D+2        0.00090   0.00081  -0.00001  -0.00017   0.00005
  44        8D-2       -0.00175  -0.00176  -0.00095   0.00163  -0.00085
  45 3   Ti 1S          0.00018   0.00030   0.00175   0.00074   0.00024
  46        2S          0.00003   0.00007   0.00068   0.00020   0.00008
  47        3S         -0.00035   0.00079  -0.00070  -0.00071   0.00029
  48        4PX         0.00014  -0.00003  -0.00021   0.00012  -0.00000
  49        4PY         0.00015  -0.00001   0.00018  -0.00008  -0.00000
  50        4PZ        -0.00001  -0.00001  -0.00003  -0.00002  -0.00000
  51        5PX         0.00018   0.00052  -0.00069   0.00006   0.00024
  52        5PY         0.00001  -0.00046   0.00011  -0.00006  -0.00011
  53        5PZ        -0.00001  -0.00000  -0.00009  -0.00002  -0.00000
  54        6PX        -0.00018   0.00009   0.00021  -0.00012  -0.00006
  55        6PY         0.00003   0.00005  -0.00014  -0.00007   0.00002
  56        6PZ         0.00000   0.00001   0.00005   0.00001  -0.00000
  57        7D 0       -0.00005  -0.00003  -0.00002  -0.00008  -0.00000
  58        7D+1       -0.00001  -0.00000  -0.00000  -0.00002   0.00000
  59        7D-1       -0.00001  -0.00000   0.00000   0.00001  -0.00000
  60        7D+2       -0.00004  -0.00003   0.00003   0.00004  -0.00000
  61        7D-2        0.00013   0.00001  -0.00006  -0.00015  -0.00000
  62        8D 0       -0.00027  -0.00006  -0.00053  -0.00045  -0.00006
  63        8D+1       -0.00003   0.00000   0.00003  -0.00005   0.00000
  64        8D-1       -0.00000   0.00002  -0.00001   0.00006   0.00001
  65        8D+2        0.00011   0.00021   0.00017   0.00021   0.00008
  66        8D-2       -0.00001  -0.00044  -0.00137  -0.00055  -0.00017
  67 4   O  1S          0.99877  -0.00014   0.00012   0.00004  -0.00001
  68        2S          0.00694   0.00033  -0.00009  -0.00004   0.00005
  69        3S         -0.00506  -0.00122   0.00006   0.00013  -0.00019
  70        4PX        -0.00005   0.00004   0.00010  -0.00001   0.00003
  71        4PY        -0.00084  -0.00000   0.00004   0.00006   0.00000
  72        4PZ         0.00004   0.00000  -0.00000   0.00000  -0.00000
  73        5PX        -0.00038  -0.00061  -0.00054   0.00011  -0.00018
  74        5PY         0.00100   0.00028  -0.00018  -0.00003  -0.00001
  75        5PZ        -0.00004  -0.00001   0.00001  -0.00000   0.00000
  76 5   O  1S         -0.00004  -0.00003   0.00008   0.99884   0.00018
  77        2S         -0.00004  -0.00002   0.00019   0.00669  -0.00010
  78        3S          0.00013   0.00015  -0.00062  -0.00523   0.00038
  79        4PX        -0.00001  -0.00004  -0.00005  -0.00011  -0.00002
  80        4PY        -0.00006  -0.00002  -0.00001   0.00079  -0.00001
  81        4PZ        -0.00000   0.00000   0.00001   0.00006  -0.00000
  82        5PX         0.00019   0.00031   0.00062   0.00003   0.00018
  83        5PY         0.00004   0.00002   0.00003  -0.00105   0.00017
  84        5PZ         0.00000  -0.00001  -0.00010  -0.00010   0.00001
  85 6   O  1S         -0.00001  -0.00005  -0.00003   0.00028   0.00109
  86        2S         -0.00001  -0.00003  -0.00009   0.00023   0.00020
  87        3S          0.00014   0.00010   0.00036  -0.00079  -0.00066
  88        4PX         0.00002   0.00000   0.00001  -0.00004   0.00005
  89        4PY         0.00001   0.00005   0.00002  -0.00002   0.00001
  90        4PZ        -0.00000   0.00000   0.00000   0.00000  -0.00001
  91        5PX        -0.00026  -0.00017  -0.00015   0.00055  -0.00063
  92        5PY         0.00000  -0.00005  -0.00019   0.00037  -0.00000
  93        5PZ         0.00002   0.00000  -0.00001  -0.00000   0.00010
  94 7   O  1S          0.00016   0.99880  -0.00058   0.00003   0.00006
  95        2S          0.00035   0.00677   0.00006  -0.00003  -0.00006
  96        3S         -0.00133  -0.00500  -0.00027   0.00016  -0.00000
  97        4PX        -0.00002  -0.00013  -0.00003   0.00004  -0.00009
  98        4PY        -0.00000   0.00089  -0.00001   0.00000  -0.00003
  99        4PZ         0.00000  -0.00004   0.00000  -0.00000   0.00000
 100        5PX         0.00049   0.00044   0.00022  -0.00018   0.00041
 101        5PY        -0.00030  -0.00099   0.00002  -0.00009   0.00016
 102        5PZ        -0.00000   0.00003  -0.00000   0.00001  -0.00001
 103 8   O  1S          0.00001  -0.00005   0.00002  -0.00018   0.99882
 104        2S          0.00005  -0.00006   0.00005  -0.00011   0.00650
 105        3S         -0.00021  -0.00002  -0.00016   0.00045  -0.00440
 106        4PX         0.00000   0.00005  -0.00000  -0.00001  -0.00045
 107        4PY         0.00000   0.00000   0.00001  -0.00002   0.00063
 108        4PZ        -0.00000  -0.00000  -0.00000   0.00001  -0.00004
 109        5PX         0.00002  -0.00012   0.00003   0.00002   0.00042
 110        5PY        -0.00010  -0.00003  -0.00006   0.00017  -0.00074
 111        5PZ         0.00001   0.00002   0.00001  -0.00005   0.00010
 112 9   O  1S         -0.00012   0.00058   0.99877  -0.00007  -0.00002
 113        2S         -0.00009   0.00007   0.00677   0.00020   0.00005
 114        3S          0.00004  -0.00026  -0.00455  -0.00075  -0.00017
 115        4PX        -0.00005   0.00000   0.00055  -0.00003   0.00000
 116        4PY        -0.00000  -0.00000  -0.00064   0.00000  -0.00000
 117        4PZ         0.00000   0.00000   0.00006   0.00001   0.00000
 118        5PX         0.00018  -0.00006  -0.00052   0.00003  -0.00003
 119        5PY         0.00000   0.00009   0.00076   0.00020   0.00005
 120        5PZ        -0.00002  -0.00002  -0.00012  -0.00011  -0.00002
                           6         7         8         9        10
                           O         O         O         O         O
     Eigenvalues --   -19.13840  -2.50425  -2.49656  -2.47953  -1.63917
   1 1   Ti 1S          0.00074  -0.00145   0.00049  -0.01123   0.00344
   2        2S          0.00019   0.03727  -0.00610   1.00041  -0.00713
   3        3S         -0.00075  -0.00511  -0.00400   0.00240   0.01143
   4        4PX        -0.00011  -0.00152   0.00001   0.00222  -0.18304
   5        4PY         0.00008  -0.00110   0.00022  -0.01905  -0.02523
   6        4PZ         0.00002   0.00010   0.00001   0.00292   0.00551
   7        5PX        -0.00003   0.00154   0.00301   0.00307  -0.01246
   8        5PY         0.00008   0.00112   0.00053   0.00362   0.00037
   9        5PZ         0.00002  -0.00032   0.00011  -0.00003  -0.00029
  10        6PX         0.00012   0.00074   0.00012  -0.00095   0.00209
  11        6PY         0.00007  -0.00028  -0.00017  -0.00023  -0.00065
  12        6PZ        -0.00001   0.00011   0.00001  -0.00011   0.00024
  13        7D 0       -0.00008  -0.00041   0.00000   0.00216  -0.00234
  14        7D+1       -0.00002  -0.00001  -0.00001  -0.00007  -0.00052
  15        7D-1        0.00001  -0.00002   0.00000   0.00005  -0.00002
  16        7D+2        0.00003   0.00105  -0.00007   0.00079   0.00361
  17        7D-2       -0.00016   0.00042   0.00004   0.00358   0.00356
  18        8D 0       -0.00044   0.00338  -0.00033   0.00113   0.00193
  19        8D+1       -0.00006   0.00049  -0.00017  -0.00011   0.00047
  20        8D-1        0.00006  -0.00026   0.00010   0.00025  -0.00025
  21        8D+2        0.00017   0.00143  -0.00159  -0.00023   0.00584
  22        8D-2       -0.00057   0.00188  -0.00128  -0.00147   0.00286
  23 2   Ti 1S          0.00130  -0.01263   0.00150   0.00031  -0.00082
  24        2S          0.00028   0.99363  -0.12510  -0.03871   0.00205
  25        3S         -0.00048   0.01051   0.00235   0.00304  -0.00151
  26        4PX         0.00005   0.00024  -0.00175   0.00174   0.84480
  27        4PY         0.00010  -0.00265   0.00025   0.00030   0.00193
  28        4PZ         0.00001  -0.00007   0.00006  -0.00004   0.01445
  29        5PX         0.00144   0.00026   0.00053  -0.00027  -0.01600
  30        5PY         0.00013  -0.00033   0.00175  -0.00159  -0.00188
  31        5PZ        -0.00001   0.00003   0.00016  -0.00015   0.00084
  32        6PX         0.00025   0.00008   0.00086  -0.00069  -0.00503
  33        6PY        -0.00011   0.00047   0.00005  -0.00026  -0.00018
  34        6PZ        -0.00002  -0.00004  -0.00020   0.00019  -0.00026
  35        7D 0       -0.00009   0.00121  -0.00059  -0.00048   0.00061
  36        7D+1        0.00001  -0.00008  -0.00002  -0.00003  -0.00002
  37        7D-1        0.00001  -0.00020   0.00001  -0.00001  -0.00009
  38        7D+2       -0.00004   0.00403   0.00022   0.00060  -0.00074
  39        7D-2        0.00012  -0.00023   0.00016   0.00022  -0.00270
  40        8D 0       -0.00063   0.00166   0.00238   0.00264  -0.00077
  41        8D+1        0.00009   0.00028  -0.00037  -0.00032   0.00023
  42        8D-1        0.00010   0.00007  -0.00026  -0.00025   0.00010
  43        8D+2       -0.00021  -0.00419   0.00546   0.00425  -0.00340
  44        8D-2        0.00158  -0.00086  -0.00176  -0.00151  -0.00389
  45 3   Ti 1S         -0.00031  -0.00245  -0.01093   0.00021  -0.00335
  46        2S         -0.00013   0.12397   0.99313   0.00212   0.00460
  47        3S          0.00120  -0.00405   0.00279  -0.00408  -0.00934
  48        4PX        -0.00001   0.00132  -0.00228   0.00013  -0.44930
  49        4PY         0.00000   0.00326   0.02336   0.00002   0.02928
  50        4PZ         0.00001  -0.00045  -0.00367  -0.00003   0.00542
  51        5PX         0.00054  -0.00150  -0.00272  -0.00294  -0.00957
  52        5PY         0.00058  -0.00060  -0.00394  -0.00036  -0.00219
  53        5PZ         0.00003   0.00032   0.00001  -0.00008  -0.00007
  54        6PX         0.00005  -0.00054   0.00090  -0.00022   0.00184
  55        6PY        -0.00003  -0.00021   0.00043   0.00018  -0.00009
  56        6PZ        -0.00001  -0.00008   0.00013  -0.00002   0.00017
  57        7D 0        0.00001  -0.00034   0.00087  -0.00000   0.00174
  58        7D+1       -0.00001  -0.00001  -0.00006  -0.00001   0.00141
  59        7D-1        0.00000  -0.00003  -0.00013  -0.00000  -0.00036
  60        7D+2       -0.00001   0.00109   0.00030   0.00003  -0.00501
  61        7D-2       -0.00002   0.00055   0.00247   0.00010  -0.00904
  62        8D 0        0.00012   0.00334   0.00095   0.00009  -0.00120
  63        8D+1        0.00003   0.00052  -0.00022  -0.00011  -0.00037
  64        8D-1       -0.00002  -0.00027   0.00037   0.00003   0.00042
  65        8D+2       -0.00004   0.00117  -0.00011  -0.00136  -0.00246
  66        8D-2        0.00062   0.00218  -0.00168  -0.00082  -0.00311
  67 4   O  1S          0.00001  -0.00258  -0.00285   0.00008   0.01530
  68        2S         -0.00001   0.00415   0.00517  -0.00037  -0.03357
  69        3S          0.00011   0.00704   0.00527   0.00050  -0.02264
  70        4PX        -0.00002   0.00418  -0.00492  -0.00028  -0.01095
  71        4PY        -0.00000  -0.00386  -0.00547  -0.00003   0.02193
  72        4PZ         0.00000   0.00016   0.00032  -0.00001  -0.00098
  73        5PX         0.00013  -0.00336   0.00225   0.00108   0.00051
  74        5PY         0.00007  -0.00007   0.00268   0.00085  -0.00029
  75        5PZ        -0.00001   0.00009  -0.00012   0.00005  -0.00005
  76 5   O  1S         -0.00027  -0.00281  -0.00232   0.00007   0.01462
  77        2S          0.00023   0.00454   0.00359  -0.00078  -0.03177
  78        3S         -0.00086   0.00774   0.00615   0.00247  -0.02038
  79        4PX         0.00004   0.00320  -0.00571  -0.00021   0.00148
  80        4PY         0.00001   0.00524   0.00310  -0.00012  -0.02235
  81        4PZ        -0.00000   0.00034   0.00039  -0.00002  -0.00185
  82        5PX        -0.00054  -0.00361   0.00482   0.00150   0.00287
  83        5PY        -0.00034  -0.00118  -0.00055   0.00014   0.00106
  84        5PZ         0.00001   0.00008   0.00010   0.00008   0.00006
  85 6   O  1S          0.99885  -0.00206   0.00024  -0.00257  -0.00885
  86        2S          0.00665   0.00306  -0.00105   0.00392   0.01890
  87        3S         -0.00516   0.00697   0.00178   0.00681   0.01449
  88        4PX         0.00008  -0.00303   0.00050   0.00525  -0.00335
  89        4PY        -0.00076  -0.00406   0.00047  -0.00367  -0.01475
  90        4PZ        -0.00005  -0.00025   0.00004  -0.00043  -0.00104
  91        5PX         0.00003   0.00354  -0.00234  -0.00406   0.00523
  92        5PY         0.00106   0.00074  -0.00027   0.00038  -0.00058
  93        5PZ         0.00009  -0.00011  -0.00008  -0.00011  -0.00016
  94 7   O  1S          0.00005  -0.00313   0.00040  -0.00234  -0.01495
  95        2S         -0.00002   0.00562  -0.00089   0.00388   0.03346
  96        3S          0.00010   0.00631  -0.00026   0.00586   0.01812
  97        4PX         0.00000  -0.00597   0.00079   0.00387  -0.01507
  98        4PY        -0.00006   0.00451  -0.00043   0.00454   0.02018
  99        4PZ        -0.00000  -0.00012   0.00002  -0.00023  -0.00060
 100        5PX        -0.00007   0.00486  -0.00140  -0.00172   0.00734
 101        5PY         0.00002  -0.00057  -0.00101  -0.00210   0.00050
 102        5PZ         0.00000  -0.00009  -0.00000   0.00007  -0.00002
 103 8   O  1S         -0.00108  -0.00024   0.00005  -0.00650   0.00309
 104        2S          0.00020   0.00038  -0.00001   0.01358  -0.00678
 105        3S         -0.00076   0.00216  -0.00089   0.00334  -0.00040
 106        4PX         0.00003  -0.00069   0.00017  -0.00898   0.00153
 107        4PY        -0.00000   0.00050  -0.00014   0.01073  -0.00491
 108        4PZ        -0.00001   0.00003  -0.00002  -0.00079   0.00047
 109        5PX        -0.00001   0.00126  -0.00029   0.00321   0.00110
 110        5PY        -0.00020  -0.00051   0.00034  -0.00507  -0.00046
 111        5PZ         0.00010  -0.00047   0.00016   0.00041  -0.00053
 112 9   O  1S          0.00003  -0.00086  -0.00694  -0.00001  -0.01090
 113        2S         -0.00010   0.00171   0.01440   0.00003   0.02405
 114        3S          0.00044   0.00238   0.00371  -0.00039   0.00836
 115        4PX         0.00002   0.00153   0.00962  -0.00006   0.00865
 116        4PY         0.00002  -0.00149  -0.01115   0.00003  -0.01595
 117        4PZ        -0.00001   0.00006   0.00103   0.00001   0.00159
 118        5PX        -0.00003  -0.00157  -0.00303   0.00025  -0.00077
 119        5PY        -0.00016   0.00088   0.00503  -0.00029   0.00187
 120        5PZ         0.00005   0.00050  -0.00057  -0.00008  -0.00068
                          11        12        13        14        15
                           O         O         O         O         O
     Eigenvalues --    -1.62686  -1.61940  -1.61758  -1.61745  -1.61109
   1 1   Ti 1S         -0.00124  -0.00012   0.00087  -0.00057  -0.00009
   2        2S          0.00227  -0.00018  -0.00309   0.00134  -0.00029
   3        3S          0.00443   0.00002  -0.00189   0.00341   0.00022
   4        4PX         0.08326   0.00492  -0.11786  -0.21409   0.00848
   5        4PY         0.02537  -0.00121  -0.06043   0.10461  -0.00905
   6        4PZ        -0.00283   0.02897   0.00201   0.00235  -0.00388
   7        5PX        -0.00141  -0.00035   0.00080  -0.00087  -0.00018
   8        5PY        -0.00236   0.00003   0.00333  -0.00664   0.00011
   9        5PZ        -0.00007   0.00278  -0.00016  -0.00004   0.00002
  10        6PX         0.00008   0.00003  -0.00048  -0.00016  -0.00003
  11        6PY        -0.00001  -0.00002  -0.00242   0.00285  -0.00023
  12        6PZ        -0.00002  -0.00283   0.00013   0.00024   0.00067
  13        7D 0        0.00101   0.00010  -0.00127   0.00019  -0.00006
  14        7D+1        0.00023  -0.00084  -0.00023  -0.00066   0.00013
  15        7D-1        0.00005  -0.00033  -0.00007   0.00041   0.00002
  16        7D+2       -0.00090  -0.00017   0.00040   0.00341  -0.00010
  17        7D-2       -0.00170  -0.00015   0.00228   0.00289  -0.00012
  18        8D 0       -0.00043   0.00008   0.00019   0.00106   0.00014
  19        8D+1        0.00029  -0.00183  -0.00013   0.00043  -0.00034
  20        8D-1       -0.00026  -0.00055   0.00044  -0.00094   0.00006
  21        8D+2        0.00064   0.00064  -0.00056  -0.00131   0.00018
  22        8D-2        0.00155   0.00040  -0.00174   0.00426   0.00017
  23 2   Ti 1S         -0.00185   0.00005   0.00269   0.00064  -0.00018
  24        2S          0.00515  -0.00026  -0.00962  -0.00309   0.00006
  25        3S         -0.00039  -0.00015  -0.00348   0.00227  -0.00144
  26        4PX        -0.27431  -0.00339   0.26386   0.18423   0.00083
  27        4PY         0.23527  -0.02098  -0.44944   0.83353  -0.03088
  28        4PZ        -0.01827   0.99433  -0.04962   0.00057  -0.08203
  29        5PX         0.00066  -0.00002   0.00314  -0.00945   0.00106
  30        5PY        -0.00255  -0.00044  -0.01100   0.00606  -0.00185
  31        5PZ        -0.00068  -0.00391   0.00037   0.00108   0.00183
  32        6PX        -0.00237   0.00007   0.00031  -0.00121  -0.00008
  33        6PY         0.00197   0.00013   0.00564  -0.00469   0.00085
  34        6PZ         0.00034   0.00557  -0.00031  -0.00066  -0.00247
  35        7D 0        0.00167  -0.00014  -0.00301  -0.00073  -0.00004
  36        7D+1        0.00007  -0.00033   0.00002  -0.00012  -0.00085
  37        7D-1        0.00002  -0.00071   0.00006  -0.00007  -0.00002
  38        7D+2       -0.00149   0.00015   0.00323   0.00326   0.00009
  39        7D-2       -0.00100  -0.00010  -0.00056   0.00025  -0.00016
  40        8D 0       -0.00204   0.00006   0.00143   0.00232   0.00018
  41        8D+1        0.00079  -0.00019  -0.00014  -0.00069  -0.00232
  42        8D-1        0.00089  -0.00041   0.00037  -0.00028   0.00013
  43        8D+2       -0.00870   0.00003   0.00567   0.00821  -0.00259
  44        8D-2        0.00300   0.00052   0.01009   0.00525   0.00156
  45 3   Ti 1S          0.00663   0.00063   0.00690   0.00199  -0.00068
  46        2S         -0.03208  -0.00133  -0.01789   0.00142   0.00122
  47        3S         -0.00575  -0.00015   0.00030  -0.00764   0.00127
  48        4PX        -0.48001   0.02842   0.57458   0.43158   0.01518
  49        4PY         0.75744   0.05163   0.59978   0.10251   0.09896
  50        4PZ        -0.06357   0.07473  -0.08656   0.01170   0.99039
  51        5PX         0.00241  -0.00034   0.00139  -0.00606   0.00087
  52        5PY         0.00270   0.00054   0.01122  -0.00416   0.00178
  53        5PZ         0.00058   0.00247  -0.00061  -0.00065  -0.00044
  54        6PX        -0.00019   0.00009   0.00044   0.00045   0.00010
  55        6PY        -0.00236  -0.00015  -0.00417   0.00274  -0.00058
  56        6PZ        -0.00026  -0.00264   0.00017   0.00047   0.00248
  57        7D 0       -0.00955  -0.00073  -0.00601  -0.00032  -0.00173
  58        7D+1        0.00186   0.00082  -0.00106  -0.00098  -0.00013
  59        7D-1       -0.00312   0.00062  -0.00191   0.00014   0.00817
  60        7D+2       -0.00963  -0.00039  -0.00628  -0.00173  -0.00099
  61        7D-2       -0.01127   0.00039   0.00679   0.00815   0.00085
  62        8D 0        0.00223  -0.00015  -0.00204  -0.00228   0.00022
  63        8D+1        0.00010   0.00174  -0.00025  -0.00088  -0.00145
  64        8D-1        0.00041   0.00013  -0.00051   0.00080   0.00141
  65        8D+2        0.00398  -0.00081  -0.00373  -0.00590   0.00002
  66        8D-2        0.00490  -0.00019   0.00506  -0.00590   0.00171
  67 4   O  1S         -0.01100  -0.00065  -0.00946  -0.01122  -0.00057
  68        2S          0.02423   0.00140   0.02212   0.02565   0.00116
  69        3S          0.01637   0.00099   0.00873   0.01562   0.00140
  70        4PX        -0.00112  -0.00194  -0.02750   0.00273  -0.00125
  71        4PY        -0.01094  -0.00101  -0.01696  -0.01364  -0.00058
  72        4PZ         0.00038   0.00520   0.00049   0.00102   0.00611
  73        5PX        -0.00590   0.00098   0.01402   0.00504   0.00051
  74        5PY         0.00112   0.00000   0.00424   0.00422  -0.00006
  75        5PZ        -0.00020   0.00090  -0.00032  -0.00014  -0.00025
  76 5   O  1S          0.01317   0.00062  -0.00513   0.00666   0.00153
  77        2S         -0.02867  -0.00149   0.01200  -0.01536  -0.00350
  78        3S         -0.01951  -0.00072   0.00368  -0.01027  -0.00188
  79        4PX         0.01883  -0.00023   0.00384  -0.02054   0.00415
  80        4PY        -0.01257  -0.00094   0.00874  -0.00943  -0.00153
  81        4PZ        -0.00257   0.00565  -0.00002  -0.00047   0.00451
  82        5PX        -0.00895   0.00031  -0.00028   0.01078  -0.00231
  83        5PY         0.00188   0.00056  -0.00151   0.00393   0.00052
  84        5PZ         0.00054   0.00020  -0.00005   0.00008   0.00129
  85 6   O  1S          0.00088  -0.00033   0.00122  -0.01331   0.00055
  86        2S         -0.00120   0.00085  -0.00260   0.02935  -0.00113
  87        3S         -0.00352   0.00017  -0.00427   0.02074  -0.00129
  88        4PX        -0.00244  -0.00065   0.00523  -0.00699   0.00010
  89        4PY         0.00210  -0.00078   0.00055  -0.01883   0.00074
  90        4PZ         0.00006   0.00445  -0.00009  -0.00178  -0.00032
  91        5PX         0.00283   0.00041  -0.00268   0.00238   0.00072
  92        5PY         0.00060   0.00050   0.00073   0.00527  -0.00024
  93        5PZ        -0.00004   0.00079  -0.00017   0.00032   0.00007
  94 7   O  1S          0.00782  -0.00044  -0.01083   0.00482  -0.00034
  95        2S         -0.01767   0.00106   0.02397  -0.01176   0.00061
  96        3S         -0.00958   0.00040   0.01688  -0.00374   0.00128
  97        4PX         0.00879  -0.00085  -0.01143   0.01178  -0.00051
  98        4PY        -0.00956   0.00047   0.01242  -0.00085   0.00019
  99        4PZ         0.00024   0.00646  -0.00086   0.00014  -0.00059
 100        5PX        -0.00238   0.00042   0.00125  -0.00686   0.00041
 101        5PY         0.00300  -0.00027  -0.00296   0.00010   0.00064
 102        5PZ         0.00005   0.00012   0.00010  -0.00002   0.00042
 103 8   O  1S         -0.00110  -0.00019   0.00097   0.00696  -0.00039
 104        2S          0.00205   0.00038  -0.00181  -0.01598   0.00085
 105        3S          0.00190   0.00049  -0.00173  -0.00394   0.00053
 106        4PX        -0.00029  -0.00022  -0.00030   0.00697  -0.00044
 107        4PY         0.00205   0.00030  -0.00224  -0.00945   0.00051
 108        4PZ        -0.00012   0.00034   0.00008   0.00088  -0.00010
 109        5PX        -0.00082   0.00006   0.00082  -0.00249   0.00016
 110        5PY        -0.00044  -0.00017   0.00043   0.00200  -0.00011
 111        5PZ        -0.00021  -0.00018   0.00028  -0.00078   0.00012
 112 9   O  1S         -0.03148  -0.00056  -0.00325   0.00727   0.00013
 113        2S          0.06902   0.00120   0.00577  -0.01560  -0.00061
 114        3S          0.03203   0.00026   0.00536  -0.01049   0.00118
 115        4PX         0.03573   0.00101   0.01049  -0.00436   0.00002
 116        4PY        -0.03760  -0.00014   0.00287   0.01243   0.00149
 117        4PZ         0.00347   0.00101  -0.00059  -0.00069   0.01213
 118        5PX        -0.00610   0.00010   0.00318   0.00143   0.00014
 119        5PY         0.00552  -0.00019  -0.00210  -0.00321  -0.00047
 120        5PZ        -0.00034  -0.00009   0.00029  -0.00079  -0.00162
                          16        17        18        19        20
                           O         O         O         O         O
     Eigenvalues --    -1.60527  -1.60017  -1.59691  -0.99297  -0.95835
   1 1   Ti 1S          0.00330  -0.00744   0.00061   0.01110   0.05364
   2        2S         -0.02327   0.01616  -0.00112  -0.03018  -0.07533
   3        3S         -0.00514   0.00131  -0.00095  -0.06883   0.04179
   4        4PX         0.66937   0.64895   0.02369   0.03748   0.07656
   5        4PY        -0.65493   0.71556   0.09298   0.03584   0.11223
   6        4PZ         0.04753  -0.08315   0.99419  -0.00287  -0.00778
   7        5PX        -0.00028   0.00111   0.00066   0.04450  -0.03490
   8        5PY        -0.00366   0.00960   0.00154   0.00504  -0.01135
   9        5PZ        -0.00072  -0.00053  -0.00015  -0.00054   0.00158
  10        6PX        -0.00062   0.00033   0.00012  -0.00156   0.00415
  11        6PY         0.00332  -0.00334  -0.00049   0.00043   0.00117
  12        6PZ         0.00043   0.00016   0.00227  -0.00004  -0.00051
  13        7D 0       -0.00683   0.00572   0.00127  -0.01301  -0.03408
  14        7D+1        0.00182   0.00078   0.00002  -0.00102  -0.00203
  15        7D-1       -0.00220   0.00157  -0.00634  -0.00089  -0.00306
  16        7D+2       -0.00735   0.00524   0.00069   0.00114  -0.00536
  17        7D-2       -0.01278  -0.00562  -0.00080   0.00955   0.02698
  18        8D 0        0.00302   0.00229  -0.00027  -0.00059  -0.01355
  19        8D+1        0.00039   0.00036   0.00130   0.00023  -0.00028
  20        8D-1        0.00004   0.00006  -0.00109   0.00038  -0.00004
  21        8D+2        0.00506   0.00445   0.00002  -0.00790   0.00368
  22        8D-2        0.00529  -0.00391  -0.00149  -0.01205  -0.01294
  23 2   Ti 1S         -0.00192  -0.00168   0.00020   0.06410   0.03811
  24        2S          0.00476   0.00642  -0.00005  -0.08914  -0.04667
  25        3S         -0.00120   0.00229   0.00125   0.04340   0.02196
  26        4PX         0.18960   0.21480   0.00162   0.06441  -0.17193
  27        4PY         0.17620  -0.01508  -0.00986  -0.02367   0.07127
  28        4PZ        -0.00447  -0.00270  -0.03068   0.00202  -0.00413
  29        5PX        -0.00020   0.00047   0.00078   0.04649  -0.08613
  30        5PY         0.00499  -0.00857  -0.00154   0.01687  -0.03299
  31        5PZ         0.00106   0.00054   0.00157  -0.00075   0.00132
  32        6PX         0.00329   0.00044  -0.00012   0.00992  -0.02038
  33        6PY        -0.00366   0.00406   0.00068   0.00008   0.00055
  34        6PZ        -0.00071  -0.00033  -0.00213  -0.00050   0.00093
  35        7D 0        0.00153   0.00198   0.00003  -0.04135  -0.02325
  36        7D+1        0.00005   0.00001   0.00092   0.00245   0.00082
  37        7D-1       -0.00004  -0.00004   0.00008  -0.00062  -0.00089
  38        7D+2       -0.00141  -0.00312  -0.00020   0.02731   0.01778
  39        7D-2       -0.00228  -0.00057   0.00012  -0.04779  -0.04526
  40        8D 0       -0.00178  -0.00142  -0.00024  -0.01800  -0.01103
  41        8D+1        0.00072   0.00001   0.00218   0.00060   0.00044
  42        8D-1        0.00079  -0.00038   0.00011  -0.00119  -0.00015
  43        8D+2       -0.00821  -0.00392   0.00223   0.01047   0.00561
  44        8D-2       -0.00036  -0.01092  -0.00145  -0.01729  -0.00070
  45 3   Ti 1S          0.00085   0.00124   0.00014   0.06195  -0.05162
  46        2S          0.00159   0.00138   0.00003  -0.09778   0.06201
  47        3S          0.00543   0.00092  -0.00031  -0.01016  -0.07303
  48        4PX         0.09971   0.07845   0.00006  -0.08180  -0.00918
  49        4PY         0.02119   0.03039   0.00093  -0.14777   0.08305
  50        4PZ        -0.01100  -0.00430   0.00183   0.01216  -0.00937
  51        5PX         0.00354   0.00155  -0.00016   0.00394  -0.05883
  52        5PY        -0.00104   0.00027  -0.00001   0.00297  -0.00818
  53        5PZ        -0.00017  -0.00025   0.00015  -0.00131   0.00231
  54        6PX        -0.00067  -0.00078  -0.00004  -0.00268   0.00504
  55        6PY         0.00170  -0.00096  -0.00016  -0.00045  -0.00114
  56        6PZ         0.00019   0.00016   0.00053   0.00058  -0.00052
  57        7D 0        0.00056   0.00042  -0.00003  -0.04339   0.02994
  58        7D+1       -0.00015  -0.00009  -0.00006  -0.00221  -0.00079
  59        7D-1       -0.00006  -0.00006   0.00000  -0.00488   0.00348
  60        7D+2       -0.00105  -0.00109  -0.00005  -0.00887   0.00627
  61        7D-2        0.00167   0.00096  -0.00001   0.02340   0.02487
  62        8D 0       -0.00130  -0.00129  -0.00013  -0.01351   0.01407
  63        8D+1       -0.00003  -0.00017   0.00037   0.00005   0.00056
  64        8D-1        0.00019   0.00011   0.00002   0.00015   0.00011
  65        8D+2        0.00063  -0.00010  -0.00010   0.00124  -0.01103
  66        8D-2       -0.00111  -0.00090  -0.00022  -0.02313   0.00915
  67 4   O  1S         -0.00057   0.00152   0.00009  -0.21913   0.06114
  68        2S          0.00184  -0.00232  -0.00003   0.46688  -0.12491
  69        3S         -0.00055  -0.00682  -0.00096   0.45974  -0.14522
  70        4PX        -0.00206  -0.00516  -0.00021   0.00341   0.01805
  71        4PY        -0.00031   0.00162   0.00002  -0.08279   0.01381
  72        4PZ         0.00002  -0.00006  -0.00016   0.00404  -0.00051
  73        5PX         0.00004  -0.00030   0.00017  -0.00284  -0.00582
  74        5PY        -0.00150  -0.00060   0.00063  -0.05041   0.01954
  75        5PZ        -0.00016  -0.00007   0.00029   0.00259  -0.00083
  76 5   O  1S          0.00289   0.00122  -0.00012  -0.02955   0.03562
  77        2S         -0.00622  -0.00313   0.00019   0.06563  -0.07549
  78        3S         -0.00578   0.00006   0.00058   0.04027  -0.07341
  79        4PX        -0.00559  -0.00262   0.00011  -0.00587   0.01070
  80        4PY        -0.00476  -0.00269   0.00017   0.01484  -0.01608
  81        4PZ        -0.00039  -0.00015  -0.00017   0.00145  -0.00199
  82        5PX         0.00087   0.00165   0.00068   0.01024  -0.00588
  83        5PY         0.00263   0.00334  -0.00016   0.00532  -0.00685
  84        5PZ         0.00021   0.00003   0.00022  -0.00191   0.00031
  85 6   O  1S          0.01172   0.00036  -0.00174  -0.01294  -0.01893
  86        2S         -0.02546  -0.00126   0.00402   0.02963   0.04186
  87        3S         -0.01530   0.00333   0.00201   0.01400   0.02444
  88        4PX        -0.02518  -0.00101   0.00353   0.00003   0.00538
  89        4PY         0.01162   0.00306  -0.00194  -0.00648  -0.00883
  90        4PZ         0.00231  -0.00034   0.00478  -0.00059  -0.00073
  91        5PX         0.01051   0.00151  -0.00193  -0.00363  -0.00602
  92        5PY         0.00048   0.00097   0.00055  -0.00264  -0.00160
  93        5PZ        -0.00045   0.00012   0.00119   0.00085   0.00134
  94 7   O  1S         -0.00186   0.01185   0.00062  -0.07947  -0.21612
  95        2S          0.00391  -0.02719  -0.00127   0.17261   0.45383
  96        3S          0.00301  -0.01582  -0.00158   0.14938   0.47163
  97        4PX         0.00277  -0.02170  -0.00100  -0.01561  -0.01029
  98        4PY         0.00068  -0.01858  -0.00072   0.03668   0.08205
  99        4PZ         0.00008   0.00079   0.00503  -0.00138  -0.00338
 100        5PX         0.00667   0.01302   0.00041   0.00582  -0.00792
 101        5PY        -0.00020   0.00461  -0.00002   0.01499   0.05408
 102        5PZ         0.00012  -0.00030   0.00016  -0.00083  -0.00223
 103 8   O  1S         -0.03053   0.00444  -0.00002  -0.00712  -0.03073
 104        2S          0.06668  -0.00907   0.00031   0.01881   0.06785
 105        3S          0.03097  -0.00437  -0.00108   0.00044   0.04757
 106        4PX        -0.03224   0.01253   0.00025  -0.00391  -0.01323
 107        4PY         0.03922   0.00167   0.00116   0.00146   0.00402
 108        4PZ        -0.00279  -0.00039   0.01148  -0.00030  -0.00063
 109        5PX         0.00588   0.00118   0.00007   0.00057  -0.00847
 110        5PY        -0.00684  -0.00193  -0.00042  -0.00303  -0.00119
 111        5PZ         0.00008  -0.00007  -0.00156   0.00092   0.00085
 112 9   O  1S          0.00174   0.00101  -0.00002  -0.04851   0.07506
 113        2S         -0.00382  -0.00216   0.00006   0.10952  -0.16297
 114        3S         -0.00227  -0.00185  -0.00014   0.07339  -0.14669
 115        4PX        -0.00111  -0.00047   0.00001   0.02148  -0.02255
 116        4PY         0.00284   0.00190  -0.00001  -0.00745   0.01972
 117        4PZ        -0.00035  -0.00017   0.00002   0.00135  -0.00224
 118        5PX         0.00059   0.00053   0.00007   0.00927  -0.01171
 119        5PY        -0.00021  -0.00030  -0.00002   0.00321   0.00505
 120        5PZ        -0.00009  -0.00014   0.00006  -0.00159   0.00011
                          21        22        23        24        25
                           O         O         O         O         O
     Eigenvalues --    -0.95332  -0.92878  -0.91209  -0.88228  -0.48589
   1 1   Ti 1S          0.02307   0.06488  -0.04378   0.04173  -0.00981
   2        2S         -0.04052  -0.08338   0.05552  -0.05104   0.00613
   3        3S         -0.04408   0.02188  -0.02055   0.01961  -0.07249
   4        4PX         0.03272   0.01015   0.02270  -0.20861  -0.00362
   5        4PY         0.02151  -0.01126  -0.03837   0.19642  -0.02324
   6        4PZ        -0.00496  -0.01325   0.00783  -0.00518   0.00132
   7        5PX         0.02572  -0.02933   0.02174  -0.00767   0.05699
   8        5PY         0.00984   0.00374   0.00591  -0.02214   0.01727
   9        5PZ         0.00014   0.00229  -0.00164   0.00191  -0.00122
  10        6PX        -0.00219   0.00590  -0.00219   0.00305  -0.00457
  11        6PY         0.00082  -0.00398  -0.00008  -0.00223  -0.00164
  12        6PZ        -0.00020  -0.00071   0.00060  -0.00017  -0.00030
  13        7D 0       -0.01917  -0.04263   0.02892  -0.03058   0.00566
  14        7D+1       -0.00146  -0.00207  -0.00038   0.01066   0.00106
  15        7D-1       -0.00038   0.00098   0.00139  -0.01008   0.00329
  16        7D+2        0.00292   0.01079   0.00084  -0.02606   0.06178
  17        7D-2       -0.01195  -0.09605   0.05262  -0.06034  -0.02783
  18        8D 0       -0.00506  -0.01397   0.01213  -0.00451   0.00240
  19        8D+1       -0.00004  -0.00136   0.00109   0.00057  -0.00048
  20        8D-1        0.00042   0.00164  -0.00103  -0.00193   0.00150
  21        8D+2       -0.00242   0.00435  -0.00086   0.00091  -0.00420
  22        8D-2       -0.01813  -0.01678   0.00981  -0.00546  -0.01345
  23 2   Ti 1S          0.03516   0.03758   0.03633  -0.02732   0.13293
  24        2S         -0.04969  -0.04598  -0.03764   0.02650  -0.09684
  25        3S          0.02349   0.01953   0.01482  -0.01055   0.05253
  26        4PX        -0.02327  -0.00420   0.09736   0.07265   0.05839
  27        4PY         0.08777  -0.08011   0.10234   0.05766  -0.03625
  28        4PZ         0.00139  -0.00229   0.00670   0.00470   0.00080
  29        5PX         0.03575  -0.06975   0.01690  -0.04321   0.00263
  30        5PY        -0.00674  -0.00142  -0.00732  -0.01408   0.00754
  31        5PZ         0.00008   0.00024  -0.00155  -0.00133  -0.00007
  32        6PX         0.00709  -0.01504   0.00678  -0.00632   0.01829
  33        6PY        -0.00272   0.00391   0.00177   0.00505   0.00118
  34        6PZ        -0.00040   0.00086  -0.00052   0.00010   0.00006
  35        7D 0       -0.02325  -0.02266  -0.01993   0.01494  -0.12223
  36        7D+1        0.00240   0.00295   0.00223  -0.00164   0.00455
  37        7D-1        0.00318   0.00366   0.00207  -0.00158  -0.00646
  38        7D+2       -0.00714  -0.01027  -0.00169   0.00198   0.10039
  39        7D-2        0.05211   0.06068   0.02397  -0.01610  -0.18456
  40        8D 0       -0.00973  -0.01345  -0.01345   0.01134  -0.03285
  41        8D+1       -0.00004   0.00053   0.00091  -0.00082  -0.00034
  42        8D-1       -0.00017   0.00121   0.00190  -0.00177   0.00001
  43        8D+2        0.01032   0.00558  -0.00057   0.00236   0.08319
  44        8D-2       -0.01194  -0.00729   0.00076  -0.00293   0.01627
  45 3   Ti 1S          0.06504  -0.02517  -0.00513   0.00281  -0.00865
  46        2S         -0.09162   0.02603   0.00839  -0.00609   0.00917
  47        3S         -0.01077  -0.05496   0.01190  -0.01707  -0.02045
  48        4PX         0.06279  -0.10252  -0.19050  -0.03077   0.00584
  49        4PY        -0.03149   0.08275   0.15982   0.02117   0.06947
  50        4PZ         0.01585  -0.00482  -0.00135   0.00074  -0.00328
  51        5PX         0.00663  -0.03835   0.01429  -0.00920  -0.04309
  52        5PY        -0.00318  -0.01742  -0.01410  -0.00356  -0.01117
  53        5PZ        -0.00205   0.00157   0.00060   0.00012   0.00098
  54        6PX        -0.00460   0.00500  -0.00023   0.00235   0.00054
  55        6PY         0.00348  -0.00188  -0.00008  -0.00216   0.00092
  56        6PZ         0.00064  -0.00026   0.00017   0.00024   0.00001
  57        7D 0       -0.04678   0.01437   0.00605  -0.00295   0.01237
  58        7D+1        0.00230  -0.00533  -0.01071  -0.00195   0.00326
  59        7D-1       -0.00231   0.00464   0.00920   0.00135   0.01568
  60        7D+2        0.01074   0.01069   0.02655   0.00406   0.20909
  61        7D-2       -0.11839   0.03792   0.01783  -0.00183  -0.06445
  62        8D 0       -0.01162   0.00451  -0.00245  -0.00327  -0.00807
  63        8D+1       -0.00101   0.00032  -0.00102  -0.00046  -0.00033
  64        8D-1        0.00117   0.00051   0.00222   0.00079   0.00212
  65        8D+2       -0.00031  -0.00288   0.00137  -0.00300   0.02605
  66        8D-2       -0.01777  -0.00600  -0.00116  -0.00504  -0.01293
  67 4   O  1S          0.08386  -0.02166  -0.01096  -0.00594   0.01313
  68        2S         -0.17569   0.04714   0.02397   0.01191  -0.03060
  69        3S         -0.20300   0.04183   0.02083   0.01797  -0.03985
  70        4PX        -0.00668   0.00576   0.01320  -0.00079   0.48682
  71        4PY         0.03347  -0.01043  -0.01284  -0.00345  -0.18256
  72        4PZ        -0.00231   0.00065   0.00037  -0.00002   0.01272
  73        5PX        -0.00773  -0.00172  -0.00144   0.00181   0.22647
  74        5PY         0.02303  -0.00628  -0.00523  -0.00167  -0.06312
  75        5PZ        -0.00167   0.00018  -0.00053   0.00027   0.00505
  76 5   O  1S         -0.15036  -0.04196  -0.17392  -0.03683   0.01324
  77        2S          0.31816   0.08895   0.35890   0.07457  -0.02534
  78        3S          0.31012   0.08745   0.39028   0.08943  -0.06655
  79        4PX        -0.02079   0.01292   0.00005  -0.00684  -0.04587
  80        4PY         0.06322   0.01987   0.05961   0.00854   0.07563
  81        4PZ         0.00710   0.00038   0.00342   0.00071   0.00471
  82        5PX         0.00575  -0.00564  -0.01172   0.00437  -0.00502
  83        5PY         0.03185   0.00857   0.04749   0.01224   0.02125
  84        5PZ         0.00166   0.00094   0.00481   0.00062   0.00103
  85 6   O  1S         -0.05307  -0.18349   0.06761   0.12897   0.00478
  86        2S          0.11507   0.38628  -0.14047  -0.26420  -0.00790
  87        3S          0.09975   0.38440  -0.14740  -0.29804  -0.03450
  88        4PX         0.00083   0.01743  -0.01855   0.01095   0.01011
  89        4PY        -0.02613  -0.07162   0.02106   0.03797  -0.01461
  90        4PZ        -0.00233  -0.00711   0.00285   0.00089  -0.00193
  91        5PX        -0.00446  -0.00133   0.00924  -0.01331  -0.01289
  92        5PY        -0.00740  -0.03963   0.01804   0.03606   0.00655
  93        5PZ         0.00043  -0.00279   0.00064   0.00417  -0.00027
  94 7   O  1S         -0.04770   0.05682  -0.00472   0.01689   0.02001
  95        2S          0.10101  -0.11825   0.01103  -0.03622  -0.03776
  96        3S          0.09572  -0.14156   0.00653  -0.03730  -0.07464
  97        4PX         0.00105   0.00692  -0.00662   0.01398  -0.19759
  98        4PY         0.01588  -0.02202   0.00297  -0.01520   0.10537
  99        4PZ        -0.00061   0.00141  -0.00044   0.00042  -0.00187
 100        5PX         0.00082   0.00510   0.00131  -0.00061  -0.08363
 101        5PY         0.01198  -0.01448   0.00117  -0.00680   0.01735
 102        5PZ        -0.00052   0.00130  -0.00003  -0.00030   0.00018
 103 8   O  1S         -0.02347  -0.09596   0.08098  -0.20474  -0.00572
 104        2S          0.05387   0.21036  -0.17642   0.43817   0.01587
 105        3S          0.03094   0.17627  -0.15518   0.43840   0.00825
 106        4PX        -0.00817  -0.02598   0.02023  -0.03783   0.05204
 107        4PY         0.00891   0.03983  -0.02641   0.04595   0.03760
 108        4PZ        -0.00106  -0.00413   0.00255  -0.00244  -0.00144
 109        5PX        -0.00278  -0.00415   0.00510  -0.01891   0.02512
 110        5PY        -0.00325   0.00580  -0.00754   0.02503   0.01323
 111        5PZ         0.00106   0.00137  -0.00094  -0.00226   0.00095
 112 9   O  1S         -0.15225   0.09958   0.13549   0.01520  -0.01411
 113        2S          0.33496  -0.21438  -0.29144  -0.03126   0.03665
 114        3S          0.29258  -0.21447  -0.29775  -0.04057   0.03056
 115        4PX         0.03901  -0.02161  -0.02482  -0.00144  -0.23245
 116        4PY        -0.05491   0.02407   0.02326   0.00139  -0.16303
 117        4PZ         0.00610  -0.00194  -0.00080   0.00031   0.00563
 118        5PX         0.00808  -0.00863  -0.01489  -0.00221  -0.09385
 119        5PY        -0.01361   0.01505   0.01784   0.00273  -0.05863
 120        5PZ        -0.00073  -0.00135  -0.00267  -0.00112   0.00011
                          26        27        28        29        30
                           O         O         O         O         O
     Eigenvalues --    -0.43719  -0.43302  -0.42981  -0.41119  -0.40951
   1 1   Ti 1S         -0.06202   0.01782  -0.06205   0.00323   0.02381
   2        2S          0.05750  -0.01595   0.05204  -0.00183  -0.01925
   3        3S          0.10736  -0.00237   0.04975  -0.00853  -0.02688
   4        4PX        -0.06768   0.02161  -0.03900  -0.00986  -0.03677
   5        4PY        -0.04030   0.07061   0.01820  -0.00394  -0.02502
   6        4PZ         0.00374  -0.00212   0.00320   0.02296  -0.00695
   7        5PX        -0.03950  -0.02501  -0.00474  -0.00406  -0.03484
   8        5PY        -0.00651  -0.01134  -0.03075   0.00564   0.02236
   9        5PZ         0.00085   0.00188   0.00036  -0.00972  -0.00041
  10        6PX        -0.00425  -0.00130  -0.00526  -0.00168  -0.00485
  11        6PY        -0.00316  -0.00050   0.00590   0.00176   0.00625
  12        6PZ         0.00082  -0.00020  -0.00026   0.00400  -0.00184
  13        7D 0        0.06829  -0.01757   0.07269  -0.01453  -0.04991
  14        7D+1        0.01383  -0.00183   0.01225   0.04527  -0.01661
  15        7D-1        0.00610  -0.01544  -0.01008   0.04567   0.00483
  16        7D+2       -0.03609  -0.19049  -0.06197  -0.03959  -0.15650
  17        7D-2       -0.09224   0.13136   0.05973  -0.05048  -0.25555
  18        8D 0        0.01029   0.00105   0.01353  -0.00008   0.00768
  19        8D+1        0.00161  -0.00050   0.00287   0.00520  -0.00199
  20        8D-1       -0.00012  -0.00122  -0.00366   0.00885   0.00083
  21        8D+2       -0.00999  -0.03224  -0.02289  -0.01174  -0.03503
  22        8D-2        0.01208   0.00805   0.02150  -0.00288  -0.00398
  23 2   Ti 1S         -0.04953  -0.08506   0.06144  -0.02094  -0.09593
  24        2S          0.03683   0.06047  -0.03837   0.01439   0.06425
  25        3S         -0.06777  -0.02771  -0.02161  -0.00428  -0.03578
  26        4PX        -0.03560   0.10341   0.06721   0.02443   0.09558
  27        4PY        -0.00608  -0.11191   0.01405   0.01209   0.04760
  28        4PZ        -0.00193  -0.00073   0.00531  -0.01823   0.01157
  29        5PX        -0.02711   0.01468  -0.04659   0.00332   0.00849
  30        5PY         0.00212   0.03424  -0.02125  -0.00938  -0.03942
  31        5PZ         0.00036   0.00014  -0.00026   0.00820  -0.00425
  32        6PX        -0.01383   0.02360   0.01170   0.01007   0.03302
  33        6PY         0.00141   0.00286  -0.00622  -0.00242  -0.00506
  34        6PZ        -0.00021  -0.00011   0.00154  -0.00294   0.00276
  35        7D 0        0.04166   0.09273  -0.05654   0.01457   0.10220
  36        7D+1       -0.01031  -0.00769   0.01499  -0.20409   0.04725
  37        7D-1       -0.01243  -0.00230   0.02142   0.08695  -0.03361
  38        7D+2       -0.19144  -0.01636  -0.18766  -0.00220   0.01774
  39        7D-2       -0.21579   0.08511   0.15363  -0.03033  -0.13163
  40        8D 0        0.02304   0.01699  -0.00848   0.00279   0.02493
  41        8D+1       -0.00467  -0.00088   0.00154  -0.07189   0.01929
  42        8D-1        0.00017  -0.00113   0.00323   0.01994  -0.00466
  43        8D+2       -0.11585  -0.03150  -0.03597  -0.00434  -0.04173
  44        8D-2       -0.01521  -0.01983   0.03528  -0.00736  -0.01942
  45 3   Ti 1S         -0.08023   0.02815  -0.11593   0.01142   0.03237
  46        2S          0.06955  -0.01858   0.09739  -0.00553  -0.02036
  47        3S          0.05858   0.04721   0.06978   0.01994   0.07022
  48        4PX         0.09784   0.02262   0.02061  -0.01793  -0.04322
  49        4PY         0.05202   0.04122   0.02112  -0.00806  -0.00034
  50        4PZ        -0.00584  -0.00108  -0.00305  -0.07370   0.02212
  51        5PX         0.01680   0.04841  -0.05202   0.00604   0.03750
  52        5PY         0.00224  -0.00230   0.03901  -0.00037  -0.00505
  53        5PZ         0.00138   0.00211  -0.00525   0.04322  -0.01519
  54        6PX         0.00948  -0.00677   0.00810  -0.00207  -0.00633
  55        6PY        -0.00027  -0.00268   0.00521   0.00293   0.00779
  56        6PZ        -0.00079  -0.00035  -0.00090  -0.00819   0.00152
  57        7D 0        0.08346  -0.03583   0.16332  -0.03225  -0.01492
  58        7D+1        0.02288   0.00059   0.01506   0.05302  -0.03470
  59        7D-1        0.01089   0.01791  -0.01139   0.18539  -0.04084
  60        7D+2       -0.08911   0.10528   0.08229  -0.00242   0.02683
  61        7D-2       -0.19757  -0.17960   0.23627   0.06920   0.13144
  62        8D 0        0.01856  -0.00908   0.01117  -0.01194  -0.01249
  63        8D+1        0.00322   0.00014   0.00373   0.01274  -0.00808
  64        8D-1        0.00041   0.00190  -0.00546   0.03960  -0.00684
  65        8D+2       -0.03246   0.03368   0.00056   0.00402   0.02235
  66        8D-2        0.00861   0.00013   0.01884  -0.00430  -0.00170
  67 4   O  1S         -0.02479  -0.01977  -0.00594   0.00505   0.01090
  68        2S          0.05940   0.04036   0.01078  -0.01340  -0.03054
  69        3S          0.07346   0.06136   0.03069  -0.00531  -0.00113
  70        4PX         0.20311   0.16951   0.07881  -0.02423  -0.03071
  71        4PY         0.38712   0.10383   0.03285  -0.07688  -0.26869
  72        4PZ        -0.00026   0.00638  -0.01277   0.53365  -0.13601
  73        5PX         0.09124   0.09180   0.05252  -0.01342  -0.02304
  74        5PY         0.16567   0.03195   0.00893  -0.03846  -0.13891
  75        5PZ        -0.00083   0.00383  -0.00605   0.25376  -0.06505
  76 5   O  1S         -0.01940   0.01024  -0.00594  -0.00432  -0.01183
  77        2S          0.04206  -0.02105   0.01195   0.00927   0.02008
  78        3S          0.07225  -0.02116   0.01596   0.00906   0.03702
  79        4PX        -0.04866  -0.17369   0.39420   0.00661  -0.03381
  80        4PY        -0.22362   0.07639   0.02245  -0.03965  -0.08458
  81        4PZ         0.00525   0.01432  -0.02053   0.04392  -0.03994
  82        5PX        -0.04231  -0.08826   0.16995   0.00821  -0.01673
  83        5PY        -0.09501   0.03434   0.01518  -0.01445  -0.01520
  84        5PZ         0.00388   0.00657  -0.01033   0.02025  -0.01766
  85 6   O  1S         -0.01616  -0.01292  -0.00051  -0.00375  -0.01005
  86        2S          0.03226   0.02461   0.00255   0.00870   0.02438
  87        3S          0.06145   0.05288   0.00525   0.01499   0.04168
  88        4PX         0.00155  -0.06433  -0.20477   0.06268   0.32597
  89        4PY         0.16003   0.10724   0.01945   0.04871   0.14917
  90        4PZ         0.00052   0.00748   0.00402  -0.03307   0.00272
  91        5PX         0.01919  -0.03100  -0.08136   0.02882   0.16560
  92        5PY         0.05929   0.03766   0.01757   0.02460   0.07695
  93        5PZ        -0.00109   0.00271   0.00174  -0.01033  -0.00121
  94 7   O  1S         -0.01283  -0.00461  -0.01028  -0.00402  -0.01713
  95        2S          0.02954   0.01394   0.02321   0.01031   0.04367
  96        3S          0.04919   0.00521   0.02686   0.00826   0.03870
  97        4PX        -0.21904   0.45891   0.07148   0.00039  -0.00141
  98        4PY        -0.19404  -0.07054  -0.20067  -0.07562  -0.27446
  99        4PZ        -0.00117   0.00364   0.00210  -0.22005   0.05830
 100        5PX        -0.09644   0.23136   0.02207  -0.00063   0.00368
 101        5PY        -0.07528  -0.02661  -0.08974  -0.03664  -0.13038
 102        5PZ         0.00050   0.00174   0.00066  -0.09511   0.02543
 103 8   O  1S         -0.00287   0.00589  -0.00724   0.00516   0.02507
 104        2S          0.00261  -0.01631   0.00816  -0.01064  -0.05246
 105        3S          0.02814  -0.01453   0.04778  -0.01788  -0.08009
 106        4PX         0.01160  -0.16624  -0.01241  -0.04978  -0.23554
 107        4PY         0.01777  -0.16177  -0.09745   0.01614   0.09531
 108        4PZ         0.00092   0.01059   0.01803  -0.03063  -0.03146
 109        5PX         0.00433  -0.07073  -0.01447  -0.01906  -0.09078
 110        5PY         0.01753  -0.06082  -0.02419   0.00586   0.03168
 111        5PZ        -0.00173   0.00400   0.00464  -0.01597  -0.01331
 112 9   O  1S          0.00550   0.01150  -0.03236  -0.00448  -0.00807
 113        2S         -0.01569  -0.02388   0.06262   0.01066   0.01897
 114        3S          0.00457  -0.03710   0.12590   0.00796   0.01657
 115        4PX         0.08224  -0.05666  -0.30425  -0.05706  -0.11443
 116        4PY        -0.03704  -0.21724   0.17098   0.04284   0.03460
 117        4PZ         0.00811   0.03257  -0.07012   0.20510  -0.05355
 118        5PX         0.03352  -0.02409  -0.11024  -0.02425  -0.05124
 119        5PY        -0.02352  -0.07860   0.04472   0.01751   0.01236
 120        5PZ         0.00627   0.01393  -0.02683   0.09700  -0.02740
                          31        32        33        34        35
                           O         O         O         O         O
     Eigenvalues --    -0.39475  -0.38616  -0.38114  -0.37907  -0.36848
   1 1   Ti 1S          0.00063   0.14448   0.07124  -0.00763  -0.00314
   2        2S          0.00178  -0.10560  -0.05703   0.00989   0.00256
   3        3S          0.04384   0.10462  -0.01526   0.08428  -0.00378
   4        4PX         0.00835   0.06351  -0.00186   0.03616   0.00250
[...]
   5         O               -19.140586         29.124903
   6         O               -19.138396         29.126040
   7         O                -2.504250          1.342119
   8         O                -2.496557          1.341410
   9         O                -2.479527          1.341188
  10         O                -1.639172          2.311967
  11         O                -1.626861          2.338366
  12         O                -1.619402          2.396776
  13         O                -1.617576          2.385549
  14         O                -1.617454          2.374835
  15         O                -1.611091          2.396878
  16         O                -1.605265          2.351146
  17         O                -1.600173          2.392741
  18         O                -1.596909          2.396474
  19         O                -0.992973          2.989159
  20         O                -0.958350          3.066896
  21         O                -0.953315          3.051115
  22         O                -0.928781          3.028548
  23         O                -0.912091          3.164782
  24         O                -0.882281          3.207582
  25         O                -0.485887          2.367362
  26         O                -0.437194          2.402662
  27         O                -0.433018          2.411650
  28         O                -0.429812          2.515857
  29         O                -0.411194          2.219704
  30         O                -0.409508          2.458940
  31         O                -0.394754          2.339032
  32         O                -0.386158          2.471583
  33         O                -0.381142          2.381073
  34         O                -0.379069          2.503587
  35         O                -0.368477          2.300782
  36         O                -0.349909          2.680379
  37         O                -0.342059          2.338185
  38         O                -0.326155          2.538476
  39         O                -0.322728          2.603769
  40         O                -0.311422          2.299387
  41         O                -0.304207          2.660064
  42         O                -0.297829          2.583706
  43         V                -0.146790          2.908486
  44         V                -0.137991          3.771075
  45         V                -0.128898          3.340486
  46         V                -0.122899          3.759594
  47         V                -0.121827          3.585849
  48         V                -0.118849          3.690724
  49         V                -0.104022          3.835989
  50         V                -0.093055          3.785532
  51         V                -0.073176          4.053310
  52         V                -0.070607          4.016517
  53         V                -0.055284          4.054809
  54         V                -0.054186          3.914981
  55         V                -0.041338          1.972622
  56         V                -0.036605          1.923911
  57         V                 0.004387          0.222597
  58         V                 0.007670          0.233276
  59         V                 0.011237          0.670164
  60         V                 0.014767          1.267196
  61         V                 0.019912          0.357189
  62         V                 0.020940          0.979370
  63         V                 0.031398          2.831227
  64         V                 0.041431          0.159847
  65         V                 0.042069          0.208331
  66         V                 0.046935          0.230414
  67         V                 0.059353          2.643873
  68         V                 0.084627          0.578801
  69         V                 0.096550          1.752532
  70         V                 0.097534          0.567319
  71         V                 0.105055          1.368379
  72         V                 0.121770          0.491781
  73         V                 0.135719          0.744893
  74         V                 0.142278          0.760804
  75         V                 0.144976          0.828243
  76         V                 0.177024          0.931142
  77         V                 0.182689          0.886854
  78         V                 0.223161          1.589993
  79         V                 0.297479          1.426052
  80         V                 0.299505          1.611687
  81         V                 0.315276          1.841823
  82         V                 0.318688          1.577351
  83         V                 0.326269          1.394679
  84         V                 0.334145          1.322319
  85         V                 0.346678          1.302544
  86         V                 0.353949          1.480514
  87         V                 0.382408          1.412632
  88         V                 0.399830          1.466298
  89         V                 0.406608          1.368438
  90         V                 0.443602          1.327351
  91         V                 0.461023          1.784153
  92         V                 0.482736          1.431642
  93         V                 0.515083          1.679424
  94         V                 0.652784          2.260494
  95         V                 0.679447          3.066223
  96         V                 0.709084          2.914940
  97         V                 0.721332          2.817818
  98         V                 0.727573          3.051139
  99         V                 0.749136          2.933186
 100         V                 0.764722          2.804791
 101         V                 0.770551          2.917725
 102         V                 0.792616          2.910200
 103         V                 0.804403          2.947389
 104         V                 0.856800          2.886314
 105         V                 0.860015          2.928981
 106         V                 0.872170          2.820381
 107         V                 0.876487          2.849503
 108         V                 0.954388          2.904777
 109         V                 1.004327          3.173575
 110         V                 1.029151          3.165673
 111         V                 1.045345          3.281040
 112         V                 1.318078          3.578799
 113         V                 1.362153          4.129160
 114         V                 1.494406          4.243127
 115         V                 1.667673          4.260580
 116         V                 1.697151          4.190359
 117         V                 1.901186          4.802271
 118         V                 4.118410          2.860382
 119         V                 9.446534          2.850928
 120         V                15.385570          3.818370
 Orbital energies and kinetic energies (beta):
                                 1                 2
   1         O               -19.194619         29.131738
   2         O               -19.174920         29.129008
   3         O               -19.168751         29.130970
   4         O               -19.147524         29.125896
   5         O               -19.137577         29.126725
   6         O               -19.136794         29.128060
   7         O                -2.508733          1.342280
   8         O                -2.500863          1.341579
   9         O                -2.481654          1.341249
  10         O                -1.642980          2.315401
  11         O                -1.631328          2.341113
  12         O                -1.625471          2.397218
  13         O                -1.622137          2.384623
  14         O                -1.620847          2.378598
  15         O                -1.615348          2.396796
  16         O                -1.607620          2.350863
  17         O                -1.602538          2.392812
  18         O                -1.598804          2.396482
  19         O                -0.964805          2.889656
  20         O                -0.941572          2.997131
  21         O                -0.937865          3.022802
  22         O                -0.919858          3.029100
  23         O                -0.894214          3.202063
  24         O                -0.873931          3.198885
  25         O                -0.439683          2.382571
  26         O                -0.430501          2.413112
  27         O                -0.423051          2.425325
  28         O                -0.412630          2.485756
  29         O                -0.399679          2.174327
  30         O                -0.391980          2.332085
  31         O                -0.389213          2.326754
  32         O                -0.377259          2.436326
  33         O                -0.372782          2.393121
  34         O                -0.371160          2.523916
  35         O                -0.365082          2.308666
  36         O                -0.335517          2.350365
  37         O                -0.314766          2.429218
  38         O                -0.311973          2.613881
  39         O                -0.306497          2.317613
  40         O                -0.294711          2.645658
  41         O                -0.289930          2.583142
  42         V                -0.222553          2.720349
  43         V                -0.150031          2.892526
  44         V                -0.141085          3.775125
  45         V                -0.131187          3.318067
  46         V                -0.124447          3.705013
  47         V                -0.122992          3.655175
  48         V                -0.120636          3.621664
  49         V                -0.102959          3.825127
  50         V                -0.092417          3.748894
  51         V                -0.072642          3.999853
  52         V                -0.066498          3.906945
  53         V                -0.055666          4.010658
  54         V                -0.053425          3.860844
  55         V                -0.037591          2.009082
  56         V                -0.034902          1.960126
  57         V                 0.004826          0.224984
  58         V                 0.008115          0.244899
  59         V                 0.011483          0.658126
  60         V                 0.014892          1.184432
  61         V                 0.020375          0.223266
  62         V                 0.021676          0.810257
  63         V                 0.033885          3.105742
  64         V                 0.041585          0.158165
  65         V                 0.042370          0.208801
  66         V                 0.047520          0.245774
  67         V                 0.061090          2.641153
  68         V                 0.085431          0.593982
  69         V                 0.097040          1.749298
  70         V                 0.098228          0.577907
  71         V                 0.105637          1.338663
  72         V                 0.122156          0.495634
  73         V                 0.137279          0.758103
  74         V                 0.144091          0.775491
  75         V                 0.147381          0.881743
  76         V                 0.178590          0.946419
  77         V                 0.184002          0.889639
  78         V                 0.223932          1.591142
  79         V                 0.298371          1.418792
  80         V                 0.301174          1.600082
  81         V                 0.316245          1.829881
  82         V                 0.318588          1.572957
  83         V                 0.326533          1.388454
  84         V                 0.335369          1.317517
  85         V                 0.347481          1.298938
  86         V                 0.354364          1.478408
  87         V                 0.382218          1.405822
  88         V                 0.401408          1.465658
  89         V                 0.408067          1.365092
  90         V                 0.444748          1.317379
  91         V                 0.462234          1.783037
  92         V                 0.483033          1.427814
  93         V                 0.516499          1.684391
  94         V                 0.660479          2.287180
  95         V                 0.687987          3.119496
  96         V                 0.716402          2.955208
  97         V                 0.725207          2.839825
  98         V                 0.738175          3.082288
  99         V                 0.754381          2.978507
 100         V                 0.770478          2.818803
 101         V                 0.774802          2.953937
 102         V                 0.807294          2.883199
 103         V                 0.815079          3.140377
 104         V                 0.864027          2.943854
 105         V                 0.866267          2.899145
 106         V                 0.877118          2.844494
 107         V                 0.880749          2.899237
 108         V                 0.956281          2.909579
 109         V                 1.017299          3.222011
 110         V                 1.032324          3.197249
 111         V                 1.052205          3.302921
 112         V                 1.325541          3.591046
 113         V                 1.370111          4.153127
 114         V                 1.506041          4.263860
 115         V                 1.671108          4.264738
 116         V                 1.704860          4.209741
 117         V                 1.907472          4.813393
 118         V                 4.122406          2.865216
 119         V                 9.450537          2.851460
 120         V                15.393557          3.818689
 Total kinetic energy from orbitals= 5.223285010134D+02
                          Isotropic Fermi Contact Couplings
        Atom                 a.u.       MegaHertz       Gauss      10(-4) cm-1
     1  Ti(47)             0.00000      -0.00020      -0.00007      -0.00007
     2  Ti(47)             0.00000      -0.00008      -0.00003      -0.00003
     3  Ti(47)             0.00000      -0.00040      -0.00014      -0.00013
     4  O(17)              0.13025     -78.95484     -28.17305     -26.33650
     5  O(17)              0.00333      -2.01872      -0.72033      -0.67337
     6  O(17)              0.00678      -4.11150      -1.46708      -1.37145
     7  O(17)              0.04405     -26.70288      -9.52825      -8.90712
     8  O(17)              0.03422     -20.74115      -7.40096      -6.91850
     9  O(17)              0.10017     -60.72058     -21.66661     -20.25421
 --------------------------------------------------------
       Center         ----  Spin Dipole Couplings  ----
                      3XX-RR        3YY-RR        3ZZ-RR
 --------------------------------------------------------
     1   Atom        0.002769     -0.006220      0.003451
     2   Atom        0.032799      0.022444     -0.055244
     3   Atom        0.003713      0.005343     -0.009056
     4   Atom        1.140166     -0.333526     -0.806640
     5   Atom        0.133829     -0.098466     -0.035363
     6   Atom        0.104321     -0.063052     -0.041269
     7   Atom        0.531839     -0.100430     -0.431410
     8   Atom        0.410024     -0.192942     -0.217081
     9   Atom        1.067503     -0.360922     -0.706581
 --------------------------------------------------------
                        XY            XZ            YZ
 --------------------------------------------------------
     1   Atom        0.005957     -0.005580     -0.003421
     2   Atom        0.032049      0.009881      0.005913
     3   Atom        0.009816     -0.011977     -0.007717
     4   Atom       -1.045311      0.125506     -0.062255
     5   Atom       -0.005863     -0.014466     -0.008073
     6   Atom       -0.048626     -0.019172      0.002418
     7   Atom       -0.607419      0.042625     -0.024142
     8   Atom        0.218788      0.049215      0.022958
     9   Atom        0.923542      0.074385      0.056932
 --------------------------------------------------------


 ---------------------------------------------------------------------------------
              Anisotropic Spin Dipole Couplings in Principal Axis System
 ---------------------------------------------------------------------------------

       Atom             a.u.   MegaHertz   Gauss  10(-4) cm-1        Axes

              Baa    -0.0092     0.278     0.099     0.093 -0.4223  0.9046  0.0583
     1 Ti(47) Bbb    -0.0020     0.060     0.021     0.020  0.6030  0.2323  0.7632
              Bcc     0.0112    -0.338    -0.121    -0.113  0.6768  0.3574 -0.6435
 
              Baa    -0.0564     1.700     0.607     0.567 -0.0976 -0.0349  0.9946
     2 Ti(47) Bbb    -0.0048     0.144     0.051     0.048 -0.6430  0.7650 -0.0362
              Bcc     0.0612    -1.844    -0.658    -0.615  0.7596  0.6431  0.0971
 
              Baa    -0.0164     0.494     0.176     0.165  0.4741  0.0966  0.8752
     3 Ti(47) Bbb    -0.0044     0.134     0.048     0.045 -0.5885  0.7740  0.2334
              Bcc     0.0208    -0.628    -0.224    -0.209  0.6549  0.6257 -0.4238
 
              Baa    -0.8757    63.365    22.610    21.136  0.4620  0.8860 -0.0409
     4 O(17)  Bbb    -0.8144    58.929    21.027    19.657 -0.0308  0.0621  0.9976
              Bcc     1.6901  -122.294   -43.637   -40.793  0.8864 -0.4596  0.0560
 
              Baa    -0.0997     7.217     2.575     2.407  0.0330  0.9907  0.1317
     5 O(17)  Bbb    -0.0354     2.564     0.915     0.855  0.0798 -0.1339  0.9878
              Bcc     0.1352    -9.781    -3.490    -3.263  0.9963 -0.0221 -0.0835
 
              Baa    -0.0764     5.526     1.972     1.843  0.2669  0.9604  0.0796
     6 O(17)  Bbb    -0.0433     3.136     1.119     1.046  0.0930 -0.1079  0.9898
              Bcc     0.1197    -8.661    -3.091    -2.889  0.9592 -0.2568 -0.1181
 
              Baa    -0.4691    33.945    12.112    11.323  0.5196  0.8534 -0.0410
     7 O(17)  Bbb    -0.4331    31.342    11.184    10.455 -0.0101  0.0541  0.9985
              Bcc     0.9023   -65.287   -23.296   -21.777  0.8543 -0.5184  0.0367
 
              Baa    -0.2650    19.173     6.841     6.395 -0.2950  0.9438 -0.1493
     8 O(17)  Bbb    -0.2202    15.935     5.686     5.315 -0.1183  0.1189  0.9858
              Bcc     0.4852   -35.108   -12.527   -11.711  0.9481  0.3085  0.0765
 
              Baa    -0.8173    59.142    21.103    19.728 -0.4283  0.8877 -0.1687
     9 O(17)  Bbb    -0.7072    51.174    18.260    17.070 -0.1108  0.1336  0.9848
              Bcc     1.5246  -110.316   -39.364   -36.798  0.8968  0.4405  0.0411
 

 ---------------------------------------------------------------------------------


 Test job not archived.
 1\1\GINC-POP-OS\SP\UB3LYP\LANL2DZ\O6Ti3(1+,2)\RHEINHEIMER\31-May-2021\
 0\\#t B3LYP/LANL2DZ # SCRF=(Solvent=Ethanol) # Gfinput IOP(6/7=3) Pop=
 hirshfeld Density Test # Units(Ang,Deg)\\3-tio2.pdb\\1,2\Ti,-1,-1.641,
 1.281,-0.014\Ti,-1,1.10770513,1.41319636,-0.03946004\Ti,-1,3.85641027,
 1.54539273,-0.06492008\O,-1,2.59824652,0.24907049,0.26629683\O,-1,2.43
 626749,2.63074102,-0.53886675\O,-1,-0.25649358,0.15493477,0.47724339\O
 ,-1,-0.28140306,2.5579148,-0.35239315\O,-1,-2.55712953,2.59862657,-0.3
 2144578\O,-1,4.77709533,0.23630425,0.21797797\\Version=ES64L-G16RevA.0
 3\State=2-A\HF=-625.7887095\S2=0.787866\S2-1=0.\S2A=0.751075\RMSD=3.33
 4e-09\Dipole=1.1910858,-0.1718205,0.0572597\Quadrupole=20.8342559,-21.
 7136863,0.8794303,25.1836935,-3.4612162,8.1603209\PG=C01 [X(O6Ti3)]\\@


 HE WHO LAUGHS LAST PROBABLY DIDN'T GET THE JOKE.
 Job cpu time:       0 days  0 hours  5 minutes  6.2 seconds.
 Elapsed time:       0 days  0 hours  0 minutes 44.8 seconds.
 File lengths (MBytes):  RWF=     38 Int=      0 D2E=      0 Chk=      3 Scr=      1
 Normal termination of Gaussian 16 at Mon May 31 13:07:27 2021.
