 Entering Gaussian System, Link 0=g16
 Input=e-3-tio2_anion_scf_g09.com
 Output=e-3-tio2_anion_scf_g09.log
 Initial command:
 /home/rheinheimer/Apps//g16/l1.exe "/home/rheinheimer/Apps/scrgauss/Gau-299067.inp" -scrdir="/home/rheinheimer/Apps/scrgauss/"
 Entering Link 1 = /home/rheinheimer/Apps//g16/l1.exe PID=    299069.
  
 Copyright (c) 1988,1990,1992,1993,1995,1998,2003,2009,2016,
            Gaussian, Inc.  All Rights Reserved.
  
 This is part of the Gaussian(R) 16 program.  It is based on
 the Gaussian(R) 09 system (copyright 2009, Gaussian, Inc.),
 the Gaussian(R) 03 system (copyright 2003, Gaussian, Inc.),
 the Gaussian(R) 98 system (copyright 1998, Gaussian, Inc.),
 the Gaussian(R) 94 system (copyright 1995, Gaussian, Inc.),
 the Gaussian 92(TM) system (copyright 1992, Gaussian, Inc.),
 the Gaussian 90(TM) system (copyright 1990, Gaussian, Inc.),
 the Gaussian 88(TM) system (copyright 1988, Gaussian, Inc.),
 the Gaussian 86(TM) system (copyright 1986, Carnegie Mellon
 University), and the Gaussian 82(TM) system (copyright 1983,
 Carnegie Mellon University). Gaussian is a federally registered
 trademark of Gaussian, Inc.
  
 This software contains proprietary and confidential information,
 including trade secrets, belonging to Gaussian, Inc.
  
 This software is provided under written license and may be
 used, copied, transmitted, or stored only in accord with that
 written license.
  
 The following legend is applicable only to US Government
 contracts under FAR:
  
                    RESTRICTED RIGHTS LEGEND
  
 Use, reproduction and disclosure by the US Government is
 subject to restrictions as set forth in subparagraphs (a)
 and (c) of the Commercial Computer Software - Restricted
 Rights clause in FAR 52.227-19.
  
 Gaussian, Inc.
 340 Quinnipiac St., Bldg. 40, Wallingford CT 06492
  
  
 ---------------------------------------------------------------
 Warning -- This program may not be used in any manner that
 competes with the business of Gaussian, Inc. or will provide
 assistance to any competitor of Gaussian, Inc.  The licensee
 of this program is prohibited from giving any competitor of
 Gaussian, Inc. access to this program.  By using this program,
 the user acknowledges that Gaussian, Inc. is engaged in the
 business of creating and licensing software in the field of
 computational chemistry and represents and warrants to the
 licensee that it is not a competitor of Gaussian, Inc. and that
 it will not use this program in any manner prohibited above.
 ---------------------------------------------------------------
  

 Cite this work as:
 Gaussian 16, Revision A.03,
 M. J. Frisch, G. W. Trucks, H. B. Schlegel, G. E. Scuseria, 
 M. A. Robb, J. R. Cheeseman, G. Scalmani, V. Barone, 
 G. A. Petersson, H. Nakatsuji, X. Li, M. Caricato, A. V. Marenich, 
 J. Bloino, B. G. Janesko, R. Gomperts, B. Mennucci, H. P. Hratchian, 
 J. V. Ortiz, A. F. Izmaylov, J. L. Sonnenberg, D. Williams-Young, 
 F. Ding, F. Lipparini, F. Egidi, J. Goings, B. Peng, A. Petrone, 
 T. Henderson, D. Ranasinghe, V. G. Zakrzewski, J. Gao, N. Rega, 
 G. Zheng, W. Liang, M. Hada, M. Ehara, K. Toyota, R. Fukuda, 
 J. Hasegawa, M. Ishida, T. Nakajima, Y. Honda, O. Kitao, H. Nakai, 
 T. Vreven, K. Throssell, J. A. Montgomery, Jr., J. E. Peralta, 
 F. Ogliaro, M. J. Bearpark, J. J. Heyd, E. N. Brothers, K. N. Kudin, 
 V. N. Staroverov, T. A. Keith, R. Kobayashi, J. Normand, 
 K. Raghavachari, A. P. Rendell, J. C. Burant, S. S. Iyengar, 
 J. Tomasi, M. Cossi, J. M. Millam, M. Klene, C. Adamo, R. Cammi, 
 J. W. Ochterski, R. L. Martin, K. Morokuma, O. Farkas, 
 J. B. Foresman, and D. J. Fox, Gaussian, Inc., Wallingford CT, 2016.
 
 ******************************************
 Gaussian 16:  ES64L-G16RevA.03 25-Dec-2016
                31-May-2021 
 ******************************************
 %nproc=8
 Will use up to    8 processors via shared memory.
 %Mem=4GB
 ----------------------------------------------------------------------
 #t B3LYP/LANL2DZ # SCRF=(Solvent=Ethanol) # Gfinput IOP(6/7=3) Pop=hir
 shfeld Density Test # Units(Ang,Deg)
 ----------------------------------------------------------------------
 ----------
 3-tio2.pdb
 ----------
 Symbolic Z-matrix:
 Charge = -1 Multiplicity = 2
 Ti                   -1   -1.641     1.281    -0.014 
 Ti                   -1    1.10771   1.4132   -0.03946 
 Ti                   -1    3.85641   1.54539  -0.06492 
 O                    -1    2.59825   0.24907   0.2663 
 O                    -1    2.43627   2.63074  -0.53887 
 O                    -1   -0.25649   0.15493   0.47724 
 O                    -1   -0.2814    2.55791  -0.35239 
 O                    -1   -2.55713   2.59863  -0.32145 
 O                    -1    4.7771    0.2363    0.21798 
 
                    Distance matrix (angstroms):
                    1          2          3          4          5
     1  Ti   0.000000
     2  Ti   2.752000   0.000000
     3  Ti   5.504000   2.752000   0.000000
     4  O    4.372031   1.915826   1.836609   0.000000
     5  O    4.326823   1.870000   1.849165   2.519302   0.000000
     6  O    1.851000   1.926459   4.375305   2.864071   3.796453
     7  O    1.895660   1.827000   4.269583   3.742449   2.725034
     8  O    1.634000   3.862094   6.504506   5.695942   4.998231
     9  O    6.506700   3.862094   1.625240   2.179422   3.433019
                    6          7          8          9
     6  O    0.000000
     7  O    2.542288   0.000000
     8  O    3.449994   2.276301   0.000000
     9  O    5.040918   5.594962   7.724144   0.000000
 Framework group  C1[X(O6Ti3)]
 Deg. of freedom    21
                         Standard orientation:                         
 ---------------------------------------------------------------------
 Center     Atomic      Atomic             Coordinates (Angstroms)
 Number     Number       Type             X           Y           Z
 ---------------------------------------------------------------------
      1         22           0        2.726994    0.401258   -0.047705
      2         22           0        0.005248   -0.002642    0.001996
      3         22           0       -2.716498   -0.406541    0.051697
      4          8           0       -1.597126    1.046684   -0.039274
      5          8           0       -1.188846   -1.438791   -0.090267
      6          8           0        1.230515    1.480849    0.098021
      7          8           0        1.504924   -1.045720    0.031827
      8          8           0        3.772819   -0.850755    0.045392
      9          8           0       -3.765581    0.829526   -0.062169
 ---------------------------------------------------------------------
 Rotational constants (GHZ):           3.5585257           0.3919366           0.3533754
 AO basis set in the form of general basis input (Overlap normalization):
      1 0
 S   3 1.00       0.000000000000
      0.1098000000D+01 -0.1023676994D+00
      0.4178000000D+00 -0.3753172148D+00
      0.8720000000D-01  0.1215423149D+01
 S   3 1.00       0.000000000000
      0.4372000000D+01 -0.3637098367D+00
      0.1098000000D+01  0.8184533826D+00
      0.4178000000D+00  0.4184526423D+00
 S   1 1.00       0.000000000000
      0.3140000000D-01  0.1000000000D+01
 P   3 1.00       0.000000000000
      0.1252000000D+02 -0.4569080054D-01
      0.1491000000D+01  0.6203313074D+00
      0.4859000000D+00  0.4765329057D+00
 P   1 1.00       0.000000000000
      0.5300000000D-01  0.1000000000D+01
 P   1 1.00       0.000000000000
      0.1600000000D-01  0.1000000000D+01
 D   4 1.00       0.000000000000
      0.2021000000D+02  0.3416819898D-01
      0.5495000000D+01  0.1710005949D+00
      0.1699000000D+01  0.4405848869D+00
      0.4840000000D+00  0.6114245818D+00
 D   1 1.00       0.000000000000
      0.1157000000D+00  0.1000000000D+01
 ****
      2 0
 S   3 1.00       0.000000000000
      0.1098000000D+01 -0.1023676994D+00
      0.4178000000D+00 -0.3753172148D+00
      0.8720000000D-01  0.1215423149D+01
 S   3 1.00       0.000000000000
      0.4372000000D+01 -0.3637098367D+00
      0.1098000000D+01  0.8184533826D+00
      0.4178000000D+00  0.4184526423D+00
 S   1 1.00       0.000000000000
      0.3140000000D-01  0.1000000000D+01
 P   3 1.00       0.000000000000
      0.1252000000D+02 -0.4569080054D-01
      0.1491000000D+01  0.6203313074D+00
      0.4859000000D+00  0.4765329057D+00
 P   1 1.00       0.000000000000
      0.5300000000D-01  0.1000000000D+01
 P   1 1.00       0.000000000000
      0.1600000000D-01  0.1000000000D+01
 D   4 1.00       0.000000000000
      0.2021000000D+02  0.3416819898D-01
      0.5495000000D+01  0.1710005949D+00
      0.1699000000D+01  0.4405848869D+00
      0.4840000000D+00  0.6114245818D+00
 D   1 1.00       0.000000000000
      0.1157000000D+00  0.1000000000D+01
 ****
      3 0
 S   3 1.00       0.000000000000
      0.1098000000D+01 -0.1023676994D+00
      0.4178000000D+00 -0.3753172148D+00
      0.8720000000D-01  0.1215423149D+01
 S   3 1.00       0.000000000000
      0.4372000000D+01 -0.3637098367D+00
      0.1098000000D+01  0.8184533826D+00
      0.4178000000D+00  0.4184526423D+00
 S   1 1.00       0.000000000000
      0.3140000000D-01  0.1000000000D+01
 P   3 1.00       0.000000000000
      0.1252000000D+02 -0.4569080054D-01
      0.1491000000D+01  0.6203313074D+00
      0.4859000000D+00  0.4765329057D+00
 P   1 1.00       0.000000000000
      0.5300000000D-01  0.1000000000D+01
 P   1 1.00       0.000000000000
      0.1600000000D-01  0.1000000000D+01
 D   4 1.00       0.000000000000
      0.2021000000D+02  0.3416819898D-01
      0.5495000000D+01  0.1710005949D+00
      0.1699000000D+01  0.4405848869D+00
      0.4840000000D+00  0.6114245818D+00
 D   1 1.00       0.000000000000
      0.1157000000D+00  0.1000000000D+01
 ****
      4 0
 S   7 1.00       0.000000000000
      0.7817000000D+04  0.1176000331D-02
      0.1176000000D+04  0.8968002523D-02
      0.2732000000D+03  0.4286801206D-01
      0.8117000000D+02  0.1439300405D+00
      0.2718000000D+02  0.3556301000D+00
      0.9532000000D+01  0.4612481297D+00
      0.3414000000D+01  0.1402060394D+00
 S   2 1.00       0.000000000000
      0.9532000000D+01 -0.1541530739D+00
      0.9398000000D+00  0.1056914507D+01
 S   1 1.00       0.000000000000
      0.2846000000D+00  0.1000000000D+01
 P   4 1.00       0.000000000000
      0.3518000000D+02  0.1958000050D-01
      0.7904000000D+01  0.1242000032D+00
      0.2305000000D+01  0.3947140101D+00
      0.7171000000D+00  0.6273760161D+00
 P   1 1.00       0.000000000000
      0.2137000000D+00  0.1000000000D+01
 ****
      5 0
 S   7 1.00       0.000000000000
      0.7817000000D+04  0.1176000331D-02
      0.1176000000D+04  0.8968002523D-02
      0.2732000000D+03  0.4286801206D-01
      0.8117000000D+02  0.1439300405D+00
      0.2718000000D+02  0.3556301000D+00
      0.9532000000D+01  0.4612481297D+00
      0.3414000000D+01  0.1402060394D+00
 S   2 1.00       0.000000000000
      0.9532000000D+01 -0.1541530739D+00
      0.9398000000D+00  0.1056914507D+01
 S   1 1.00       0.000000000000
      0.2846000000D+00  0.1000000000D+01
 P   4 1.00       0.000000000000
      0.3518000000D+02  0.1958000050D-01
      0.7904000000D+01  0.1242000032D+00
      0.2305000000D+01  0.3947140101D+00
      0.7171000000D+00  0.6273760161D+00
 P   1 1.00       0.000000000000
      0.2137000000D+00  0.1000000000D+01
 ****
      6 0
 S   7 1.00       0.000000000000
      0.7817000000D+04  0.1176000331D-02
      0.1176000000D+04  0.8968002523D-02
      0.2732000000D+03  0.4286801206D-01
      0.8117000000D+02  0.1439300405D+00
      0.2718000000D+02  0.3556301000D+00
      0.9532000000D+01  0.4612481297D+00
      0.3414000000D+01  0.1402060394D+00
 S   2 1.00       0.000000000000
      0.9532000000D+01 -0.1541530739D+00
      0.9398000000D+00  0.1056914507D+01
 S   1 1.00       0.000000000000
      0.2846000000D+00  0.1000000000D+01
 P   4 1.00       0.000000000000
      0.3518000000D+02  0.1958000050D-01
      0.7904000000D+01  0.1242000032D+00
      0.2305000000D+01  0.3947140101D+00
      0.7171000000D+00  0.6273760161D+00
 P   1 1.00       0.000000000000
      0.2137000000D+00  0.1000000000D+01
 ****
      7 0
 S   7 1.00       0.000000000000
      0.7817000000D+04  0.1176000331D-02
      0.1176000000D+04  0.8968002523D-02
      0.2732000000D+03  0.4286801206D-01
      0.8117000000D+02  0.1439300405D+00
      0.2718000000D+02  0.3556301000D+00
      0.9532000000D+01  0.4612481297D+00
      0.3414000000D+01  0.1402060394D+00
 S   2 1.00       0.000000000000
      0.9532000000D+01 -0.1541530739D+00
      0.9398000000D+00  0.1056914507D+01
 S   1 1.00       0.000000000000
      0.2846000000D+00  0.1000000000D+01
 P   4 1.00       0.000000000000
      0.3518000000D+02  0.1958000050D-01
      0.7904000000D+01  0.1242000032D+00
      0.2305000000D+01  0.3947140101D+00
      0.7171000000D+00  0.6273760161D+00
 P   1 1.00       0.000000000000
      0.2137000000D+00  0.1000000000D+01
 ****
      8 0
 S   7 1.00       0.000000000000
      0.7817000000D+04  0.1176000331D-02
      0.1176000000D+04  0.8968002523D-02
      0.2732000000D+03  0.4286801206D-01
      0.8117000000D+02  0.1439300405D+00
      0.2718000000D+02  0.3556301000D+00
      0.9532000000D+01  0.4612481297D+00
      0.3414000000D+01  0.1402060394D+00
 S   2 1.00       0.000000000000
      0.9532000000D+01 -0.1541530739D+00
      0.9398000000D+00  0.1056914507D+01
 S   1 1.00       0.000000000000
      0.2846000000D+00  0.1000000000D+01
 P   4 1.00       0.000000000000
      0.3518000000D+02  0.1958000050D-01
      0.7904000000D+01  0.1242000032D+00
      0.2305000000D+01  0.3947140101D+00
      0.7171000000D+00  0.6273760161D+00
 P   1 1.00       0.000000000000
      0.2137000000D+00  0.1000000000D+01
 ****
      9 0
 S   7 1.00       0.000000000000
      0.7817000000D+04  0.1176000331D-02
      0.1176000000D+04  0.8968002523D-02
      0.2732000000D+03  0.4286801206D-01
      0.8117000000D+02  0.1439300405D+00
      0.2718000000D+02  0.3556301000D+00
      0.9532000000D+01  0.4612481297D+00
      0.3414000000D+01  0.1402060394D+00
 S   2 1.00       0.000000000000
      0.9532000000D+01 -0.1541530739D+00
      0.9398000000D+00  0.1056914507D+01
 S   1 1.00       0.000000000000
      0.2846000000D+00  0.1000000000D+01
 P   4 1.00       0.000000000000
      0.3518000000D+02  0.1958000050D-01
      0.7904000000D+01  0.1242000032D+00
      0.2305000000D+01  0.3947140101D+00
      0.7171000000D+00  0.6273760161D+00
 P   1 1.00       0.000000000000
      0.2137000000D+00  0.1000000000D+01
 ****

 Effective core potential in the form of general ECP input:
      1 0
 Ti1-ECP   2 10
 D component
  3
  1      265.3263909      -10.00000000    0.00000000
  2       47.7687815      -51.84278160    0.00000000
  2       11.8903334       -9.14291450    0.00000000
 S-D projection
  5
  0       81.4730696        3.00000000    0.00000000
  1       72.6496724       19.48255790    0.00000000
  2       31.8128213      207.33492790    0.00000000
  2        6.1664468      235.67445010    0.00000000
  2        5.8268347     -166.87843870    0.00000000
 P-D projection
  5
  0       50.2966943        5.00000000    0.00000000
  1       63.5089754        5.53488220    0.00000000
  2       26.0996084      177.84193840    0.00000000
  2        5.6022573      107.42071530    0.00000000
  2        5.2171069      -71.90659020    0.00000000
      2 0
 Ti2-ECP   2 10
 D component
  3
  1      265.3263909      -10.00000000    0.00000000
  2       47.7687815      -51.84278160    0.00000000
  2       11.8903334       -9.14291450    0.00000000
 S-D projection
  5
  0       81.4730696        3.00000000    0.00000000
  1       72.6496724       19.48255790    0.00000000
  2       31.8128213      207.33492790    0.00000000
  2        6.1664468      235.67445010    0.00000000
  2        5.8268347     -166.87843870    0.00000000
 P-D projection
  5
  0       50.2966943        5.00000000    0.00000000
  1       63.5089754        5.53488220    0.00000000
  2       26.0996084      177.84193840    0.00000000
  2        5.6022573      107.42071530    0.00000000
  2        5.2171069      -71.90659020    0.00000000
      3 0
 Ti3-ECP   2 10
 D component
  3
  1      265.3263909      -10.00000000    0.00000000
  2       47.7687815      -51.84278160    0.00000000
  2       11.8903334       -9.14291450    0.00000000
 S-D projection
  5
  0       81.4730696        3.00000000    0.00000000
  1       72.6496724       19.48255790    0.00000000
  2       31.8128213      207.33492790    0.00000000
  2        6.1664468      235.67445010    0.00000000
  2        5.8268347     -166.87843870    0.00000000
 P-D projection
  5
  0       50.2966943        5.00000000    0.00000000
  1       63.5089754        5.53488220    0.00000000
  2       26.0996084      177.84193840    0.00000000
  2        5.6022573      107.42071530    0.00000000
  2        5.2171069      -71.90659020    0.00000000
 
   120 basis functions,   306 primitive gaussians,   126 cartesian basis functions
    43 alpha electrons       42 beta electrons
       nuclear repulsion energy       586.5669931727 Hartrees.
 NAtoms=    9 NActive=    9 NUniq=    9 SFac= 1.00D+00 NAtFMM=   60 NAOKFM=F Big=F
 ------------------------------------------------------------------------------
 Polarizable Continuum Model (PCM)
 =================================
 Model                : PCM.
 Atomic radii         : UFF (Universal Force Field).
 Polarization charges : Total charges.
 Charge compensation  : None.
 Solution method      : On-the-fly selection.
 Cavity type          : Scaled VdW (van der Waals Surface) (Alpha=1.100).
 Cavity algorithm     : GePol (No added spheres)
                        Default sphere list used, NSphG=    9.
                        Lebedev-Laikov grids with approx.  5.0 points / Ang**2.
                        Smoothing algorithm: York/Karplus (Gamma=1.0000).
                        Polarization charges: spherical gaussians, with
                                              point-specific exponents (IZeta= 3).
                        Self-potential: point-specific (ISelfS= 7).
                        Self-field    : sphere-specific E.n sum rule (ISelfD= 2).
 Solvent              : Ethanol, Eps=  24.852000 Eps(inf)=   1.852593
 ------------------------------------------------------------------------------
 Spheres list:
 ISph  on   Nord     Re0    Alpha      Xe            Ye            Ze
    1  Ti      1    1.5875  1.100      2.726994      0.401258     -0.047705
    2  Ti      2    1.5875  1.100      0.005248     -0.002642      0.001996
    3  Ti      3    1.5875  1.100     -2.716498     -0.406541      0.051697
    4   O      4    1.7500  1.100     -1.597126      1.046684     -0.039274
    5   O      5    1.7500  1.100     -1.188846     -1.438791     -0.090267
    6   O      6    1.7500  1.100      1.230515      1.480849      0.098021
    7   O      7    1.7500  1.100      1.504924     -1.045720      0.031827
    8   O      8    1.7500  1.100      3.772819     -0.850755      0.045392
    9   O      9    1.7500  1.100     -3.765581      0.829526     -0.062169
 ------------------------------------------------------------------------------
   1 Symmetry operations used in ECPInt.
 ECPInt:  NShTT=    1485 NPrTT=   10224 LenC2=    1449 LenP2D=    7176.
 LDataN:  DoStor=T MaxTD1= 4 Len=   56
 ExpMin= 1.60D-02 ExpMax= 7.82D+03 ExpMxC= 2.73D+02 IAcc=3 IRadAn=         5 AccDes= 0.00D+00
 Harris functional with IExCor=  402 and IRadAn=       5 diagonalized for initial guess.
 HarFok:  IExCor=  402 AccDes= 0.00D+00 IRadAn=         5 IDoV= 1 UseB2=F ITyADJ=14
 ICtDFT=  3500011 ScaDFX=  1.000000  1.000000  1.000000  1.000000
 FoFCou: FMM=F IPFlag=           0 FMFlag=      100000 FMFlg1=           0
         NFxFlg=           0 DoJE=T BraDBF=F KetDBF=T FulRan=T
         wScrn=  0.000000 ICntrl=       500 IOpCl=  0 I1Cent=   200000004 NGrid=           0
         NMat0=    1 NMatS0=      1 NMatT0=    0 NMatD0=    1 NMtDS0=    0 NMtDT0=    0
 Petite list used in FoFCou.
 Initial guess <Sx>= 0.0000 <Sy>= 0.0000 <Sz>= 0.5000 <S**2>= 0.7500 S= 0.5000
 Inv3:  Mode=1 IEnd=     4657548.
 Iteration    1 A*A^-1 deviation from unit magnitude is 3.33D-15 for    550.
 Iteration    1 A*A^-1 deviation from orthogonality  is 1.11D-15 for   1012    120.
 Iteration    1 A^-1*A deviation from unit magnitude is 3.11D-15 for    550.
 Iteration    1 A^-1*A deviation from orthogonality  is 1.56D-15 for    371     62.
 EnCoef did     3 forward-backward iterations
 Error on total polarization charges =  0.05118
 SCF Done:  E(UB3LYP) =  -626.146186288     A.U. after   27 cycles
            NFock= 27  Conv=0.33D-08     -V/T= 2.1961
 <Sx>= 0.0000 <Sy>= 0.0000 <Sz>= 0.5000 <S**2>= 0.7543 S= 0.5021
 <L.S>=  0.00000000000    
 Annihilation of the first spin contaminant:
 S**2 before annihilation     0.7543,   after     0.7500

 **********************************************************************

            Population analysis using the SCF density.

 **********************************************************************

 Orbital symmetries:
 Alpha Orbitals:
       Occupied  (A) (A) (A) (A) (A) (A) (A) (A) (A) (A) (A) (A)
                 (A) (A) (A) (A) (A) (A) (A) (A) (A) (A) (A) (A)
                 (A) (A) (A) (A) (A) (A) (A) (A) (A) (A) (A) (A)
                 (A) (A) (A) (A) (A) (A) (A)
       Virtual   (A) (A) (A) (A) (A) (A) (A) (A) (A) (A) (A) (A)
                 (A) (A) (A) (A) (A) (A) (A) (A) (A) (A) (A) (A)
                 (A) (A) (A) (A) (A) (A) (A) (A) (A) (A) (A) (A)
                 (A) (A) (A) (A) (A) (A) (A) (A) (A) (A) (A) (A)
                 (A) (A) (A) (A) (A) (A) (A) (A) (A) (A) (A) (A)
                 (A) (A) (A) (A) (A) (A) (A) (A) (A) (A) (A) (A)
                 (A) (A) (A) (A) (A)
 Beta  Orbitals:
       Occupied  (A) (A) (A) (A) (A) (A) (A) (A) (A) (A) (A) (A)
                 (A) (A) (A) (A) (A) (A) (A) (A) (A) (A) (A) (A)
                 (A) (A) (A) (A) (A) (A) (A) (A) (A) (A) (A) (A)
                 (A) (A) (A) (A) (A) (A)
       Virtual   (A) (A) (A) (A) (A) (A) (A) (A) (A) (A) (A) (A)
                 (A) (A) (A) (A) (A) (A) (A) (A) (A) (A) (A) (A)
                 (A) (A) (A) (A) (A) (A) (A) (A) (A) (A) (A) (A)
                 (A) (A) (A) (A) (A) (A) (A) (A) (A) (A) (A) (A)
                 (A) (A) (A) (A) (A) (A) (A) (A) (A) (A) (A) (A)
                 (A) (A) (A) (A) (A) (A) (A) (A) (A) (A) (A) (A)
                 (A) (A) (A) (A) (A) (A)
 The electronic state is 2-A.
 Alpha  occ. eigenvalues --  -19.06948 -19.06860 -19.06305 -19.06181 -19.06160
 Alpha  occ. eigenvalues --  -19.05986  -2.40841  -2.39742  -2.37311  -1.53763
 Alpha  occ. eigenvalues --   -1.53135  -1.52892  -1.52874  -1.52171  -1.51721
 Alpha  occ. eigenvalues --   -1.49930  -1.49297  -1.49207  -0.87045  -0.85379
 Alpha  occ. eigenvalues --   -0.85175  -0.83542  -0.81427  -0.80594  -0.35928
 Alpha  occ. eigenvalues --   -0.34242  -0.33941  -0.33458  -0.32384  -0.30938
 Alpha  occ. eigenvalues --   -0.30571  -0.30172  -0.29259  -0.29163  -0.28903
 Alpha  occ. eigenvalues --   -0.25725  -0.24376  -0.24090  -0.23418  -0.23233
 Alpha  occ. eigenvalues --   -0.22769  -0.19639  -0.14854
 Alpha virt. eigenvalues --   -0.06811  -0.05865  -0.05668  -0.04286  -0.01347
 Alpha virt. eigenvalues --   -0.00839  -0.00424   0.00653   0.01057   0.01408
 Alpha virt. eigenvalues --    0.01583   0.01708   0.02012   0.02498   0.02651
 Alpha virt. eigenvalues --    0.03036   0.03080   0.03596   0.03930   0.04777
 Alpha virt. eigenvalues --    0.05092   0.05815   0.10024   0.10617   0.11717
 Alpha virt. eigenvalues --    0.13166   0.13297   0.13398   0.13774   0.15912
 Alpha virt. eigenvalues --    0.16492   0.17844   0.20130   0.20853   0.26010
 Alpha virt. eigenvalues --    0.32571   0.33162   0.35056   0.35349   0.35635
 Alpha virt. eigenvalues --    0.36315   0.37380   0.39260   0.41025   0.43618
 Alpha virt. eigenvalues --    0.43929   0.47057   0.50684   0.51846   0.56407
 Alpha virt. eigenvalues --    0.70988   0.75241   0.77472   0.77858   0.79862
 Alpha virt. eigenvalues --    0.81887   0.82185   0.83661   0.86105   0.87424
 Alpha virt. eigenvalues --    0.91386   0.92212   0.93080   0.93769   1.00635
 Alpha virt. eigenvalues --    1.08231   1.08646   1.11134   1.37797   1.43390
 Alpha virt. eigenvalues --    1.58023   1.72803   1.76808   1.98204   4.16300
 Alpha virt. eigenvalues --    9.48584  15.45388
  Beta  occ. eigenvalues --  -19.07017 -19.06851 -19.06361 -19.06217 -19.06171
  Beta  occ. eigenvalues --  -19.06045  -2.40684  -2.39641  -2.34577  -1.53648
  Beta  occ. eigenvalues --   -1.52917  -1.52791  -1.52644  -1.51995  -1.51578
  Beta  occ. eigenvalues --   -1.48282  -1.46814  -1.44872  -0.87110  -0.85484
  Beta  occ. eigenvalues --   -0.85223  -0.83645  -0.81426  -0.80612  -0.35728
  Beta  occ. eigenvalues --   -0.34066  -0.33925  -0.33412  -0.32344  -0.30917
  Beta  occ. eigenvalues --   -0.30504  -0.30188  -0.29282  -0.29074  -0.28932
  Beta  occ. eigenvalues --   -0.25719  -0.24464  -0.23727  -0.23564  -0.23285
  Beta  occ. eigenvalues --   -0.22807  -0.19708
  Beta virt. eigenvalues --   -0.06913  -0.06000  -0.05570  -0.04225  -0.01897
  Beta virt. eigenvalues --   -0.01074  -0.00402  -0.00283   0.00750   0.01371
  Beta virt. eigenvalues --    0.01651   0.01777   0.01942   0.02452   0.02647
  Beta virt. eigenvalues --    0.02865   0.03075   0.03737   0.03924   0.04892
  Beta virt. eigenvalues --    0.04946   0.05088   0.05805   0.10731   0.11636
  Beta virt. eigenvalues --    0.11834   0.13432   0.13915   0.14207   0.14369
  Beta virt. eigenvalues --    0.15961   0.16578   0.18385   0.20733   0.20969
  Beta virt. eigenvalues --    0.26266   0.33291   0.34856   0.35203   0.35501
  Beta virt. eigenvalues --    0.35652   0.36352   0.37446   0.39511   0.41137
  Beta virt. eigenvalues --    0.43705   0.44267   0.47069   0.50892   0.52461
  Beta virt. eigenvalues --    0.56787   0.71037   0.75274   0.77659   0.77884
  Beta virt. eigenvalues --    0.79872   0.81875   0.82167   0.83652   0.86115
  Beta virt. eigenvalues --    0.87445   0.91396   0.92193   0.93111   0.93774
  Beta virt. eigenvalues --    1.00647   1.08282   1.08663   1.11162   1.37821
  Beta virt. eigenvalues --    1.43383   1.58029   1.72803   1.76818   1.98184
  Beta virt. eigenvalues --    4.16381   9.48486  15.44766
     Alpha Molecular Orbital Coefficients:
                           1         2         3         4         5
                           O         O         O         O         O
     Eigenvalues --   -19.06948 -19.06860 -19.06305 -19.06181 -19.06160
   1 1   Ti 1S          0.00018   0.00173   0.00027   0.00023   0.00076
   2        2S         -0.00000   0.00065   0.00005   0.00007   0.00020
   3        3S         -0.00024  -0.00078   0.00077   0.00031  -0.00074
   4        4PX        -0.00011   0.00019   0.00004   0.00001  -0.00011
   5        4PY        -0.00012  -0.00018   0.00001   0.00000   0.00008
   6        4PZ         0.00001   0.00003   0.00000   0.00000   0.00002
   7        5PX        -0.00026   0.00077  -0.00049  -0.00025  -0.00003
   8        5PY         0.00004  -0.00012   0.00044   0.00013   0.00011
   9        5PZ         0.00001   0.00008   0.00000  -0.00000   0.00002
  10        6PX         0.00017  -0.00019  -0.00008   0.00006   0.00012
  11        6PY        -0.00006   0.00013  -0.00006  -0.00002   0.00006
  12        6PZ         0.00000  -0.00004  -0.00001   0.00000  -0.00001
  13        7D 0       -0.00006  -0.00003  -0.00002   0.00000  -0.00008
  14        7D+1       -0.00001  -0.00000  -0.00000   0.00000  -0.00002
  15        7D-1       -0.00001   0.00000  -0.00000  -0.00000   0.00001
  16        7D+2       -0.00004   0.00002  -0.00003  -0.00000   0.00003
  17        7D-2        0.00013  -0.00006   0.00002   0.00000  -0.00015
  18        8D 0       -0.00028  -0.00055  -0.00006  -0.00006  -0.00045
  19        8D+1       -0.00002   0.00002   0.00001   0.00001  -0.00006
  20        8D-1        0.00000   0.00000   0.00001   0.00001   0.00007
  21        8D+2        0.00016   0.00010   0.00022   0.00010   0.00015
  22        8D-2       -0.00001  -0.00138  -0.00041  -0.00017  -0.00060
  23 2   Ti 1S          0.00126  -0.00024   0.00127  -0.00020   0.00127
  24        2S          0.00032  -0.00005   0.00029  -0.00004   0.00027
  25        3S         -0.00057   0.00017  -0.00048   0.00012  -0.00045
  26        4PX         0.00015   0.00000  -0.00009   0.00000   0.00004
  27        4PY        -0.00011  -0.00003   0.00008   0.00003   0.00009
  28        4PZ         0.00000   0.00000  -0.00000   0.00000   0.00001
  29        5PX         0.00126   0.00048  -0.00129  -0.00046   0.00142
  30        5PY         0.00001  -0.00023  -0.00004   0.00024   0.00012
  31        5PZ        -0.00000  -0.00004   0.00000   0.00004  -0.00001
  32        6PX        -0.00001   0.00025  -0.00000  -0.00026   0.00024
  33        6PY         0.00022   0.00004  -0.00019  -0.00005  -0.00010
  34        6PZ        -0.00002   0.00002   0.00002  -0.00002  -0.00002
  35        7D 0       -0.00008  -0.00000  -0.00008  -0.00001  -0.00008
  36        7D+1        0.00000  -0.00000   0.00000  -0.00000   0.00001
  37        7D-1       -0.00001  -0.00000  -0.00001  -0.00001   0.00001
  38        7D+2        0.00003   0.00001   0.00003   0.00001  -0.00004
  39        7D-2       -0.00012  -0.00001  -0.00013  -0.00001   0.00012
  40        8D 0       -0.00059   0.00016  -0.00062   0.00014  -0.00062
  41        8D+1        0.00003  -0.00001   0.00004  -0.00000   0.00009
  42        8D-1       -0.00004  -0.00004  -0.00004  -0.00004   0.00010
  43        8D+2        0.00078   0.00007   0.00082   0.00002  -0.00019
  44        8D-2       -0.00172  -0.00086  -0.00172  -0.00094   0.00155
  45 3   Ti 1S          0.00029   0.00025   0.00016   0.00170  -0.00030
  46        2S          0.00007   0.00008   0.00002   0.00065  -0.00012
  47        3S          0.00076   0.00029  -0.00031  -0.00075   0.00116
  48        4PX        -0.00003  -0.00000   0.00013  -0.00020  -0.00001
  49        4PY        -0.00001  -0.00000   0.00014   0.00017   0.00000
  50        4PZ        -0.00000  -0.00000  -0.00001  -0.00003   0.00000
  51        5PX         0.00051   0.00024   0.00020  -0.00074   0.00053
  52        5PY        -0.00045  -0.00011  -0.00003   0.00008   0.00057
  53        5PZ        -0.00000   0.00000  -0.00001  -0.00009   0.00003
  54        6PX         0.00008  -0.00006  -0.00017   0.00020   0.00005
  55        6PY         0.00005   0.00002   0.00004  -0.00012  -0.00003
  56        6PZ         0.00001  -0.00000  -0.00000   0.00005  -0.00001
  57        7D 0       -0.00003  -0.00000  -0.00005  -0.00003   0.00001
  58        7D+1       -0.00000   0.00000  -0.00001  -0.00000  -0.00001
  59        7D-1       -0.00000  -0.00000  -0.00001   0.00000   0.00000
  60        7D+2       -0.00003  -0.00000  -0.00004   0.00002  -0.00001
  61        7D-2        0.00001  -0.00000   0.00013  -0.00006  -0.00002
  62        8D 0       -0.00006  -0.00006  -0.00026  -0.00053   0.00011
  63        8D+1        0.00000   0.00000  -0.00002   0.00003   0.00003
  64        8D-1        0.00002   0.00001   0.00000  -0.00001  -0.00002
  65        8D+2        0.00021   0.00008   0.00013   0.00018  -0.00004
  66        8D-2       -0.00042  -0.00017  -0.00001  -0.00137   0.00060
  67 4   O  1S          0.00057   0.00010   0.99884   0.00212   0.00036
  68        2S          0.00033   0.00005   0.00655  -0.00006  -0.00001
  69        3S         -0.00119  -0.00020  -0.00481   0.00003   0.00011
  70        4PX         0.00004   0.00003   0.00013   0.00009  -0.00002
  71        4PY        -0.00000   0.00000  -0.00083   0.00003  -0.00000
  72        4PZ         0.00000  -0.00000   0.00005  -0.00000   0.00000
  73        5PX        -0.00060  -0.00017  -0.00051  -0.00048   0.00012
  74        5PY         0.00027  -0.00000   0.00096  -0.00017   0.00008
  75        5PZ        -0.00001   0.00000  -0.00005   0.00001  -0.00001
  76 5   O  1S         -0.00008  -0.00015  -0.00073   0.00118   0.00149
  77        2S         -0.00002  -0.00010  -0.00005   0.00019   0.00024
  78        3S          0.00015   0.00038   0.00014  -0.00062  -0.00086
  79        4PX        -0.00004  -0.00002  -0.00000  -0.00005   0.00004
  80        4PY        -0.00002  -0.00001  -0.00005  -0.00001   0.00001
  81        4PZ         0.00000  -0.00000  -0.00000   0.00002  -0.00000
  82        5PX         0.00029   0.00018   0.00017   0.00062  -0.00053
  83        5PY         0.00002   0.00016   0.00005   0.00002  -0.00034
  84        5PZ        -0.00001   0.00001   0.00000  -0.00011   0.00000
  85 6   O  1S         -0.00026   0.00034  -0.00035  -0.00581   0.99884
  86        2S         -0.00003   0.00020  -0.00001  -0.00013   0.00660
  87        3S          0.00010  -0.00067   0.00014   0.00039  -0.00513
  88        4PX         0.00000   0.00005   0.00002   0.00001   0.00014
  89        4PY         0.00005   0.00001   0.00002   0.00002  -0.00064
  90        4PZ         0.00000  -0.00001  -0.00000   0.00000  -0.00005
  91        5PX        -0.00016  -0.00064  -0.00025  -0.00015  -0.00003
  92        5PY        -0.00005  -0.00000  -0.00001  -0.00019   0.00099
  93        5PZ         0.00000   0.00010   0.00002  -0.00001   0.00009
  94 7   O  1S          0.99884   0.00244  -0.00055  -0.00009   0.00026
  95        2S          0.00656  -0.00003   0.00033   0.00006  -0.00001
  96        3S         -0.00486  -0.00002  -0.00128  -0.00026   0.00009
  97        4PX        -0.00013  -0.00009  -0.00002  -0.00003   0.00001
  98        4PY         0.00082  -0.00003  -0.00000  -0.00001  -0.00006
  99        4PZ        -0.00004   0.00000   0.00000   0.00000  -0.00000
 100        5PX         0.00043   0.00038   0.00049   0.00020  -0.00007
 101        5PY        -0.00094   0.00015  -0.00028   0.00002   0.00001
 102        5PZ         0.00003  -0.00001  -0.00000  -0.00000   0.00000
 103 8   O  1S         -0.00244   0.99883  -0.00009  -0.00009  -0.00034
 104        2S         -0.00007   0.00640   0.00005   0.00004   0.00021
 105        3S         -0.00002  -0.00436  -0.00021  -0.00015  -0.00078
 106        4PX         0.00005  -0.00031   0.00000  -0.00000   0.00003
 107        4PY         0.00000   0.00060   0.00000   0.00001  -0.00000
 108        4PZ        -0.00000  -0.00004  -0.00000  -0.00000  -0.00001
 109        5PX        -0.00012   0.00034   0.00002   0.00002  -0.00001
 110        5PY        -0.00003  -0.00074  -0.00010  -0.00006  -0.00019
 111        5PZ         0.00002   0.00010   0.00001   0.00001   0.00010
 112 9   O  1S          0.00010   0.00009  -0.00212   0.99881   0.00581
 113        2S          0.00007   0.00005  -0.00009   0.00644  -0.00006
 114        3S         -0.00025  -0.00017   0.00003  -0.00439   0.00040
 115        4PX         0.00000   0.00000  -0.00005   0.00030   0.00002
 116        4PY        -0.00000  -0.00000  -0.00000  -0.00062   0.00001
 117        4PZ         0.00000   0.00000   0.00000   0.00004  -0.00001
 118        5PX        -0.00006  -0.00003   0.00014  -0.00036  -0.00003
 119        5PY         0.00008   0.00005   0.00001   0.00075  -0.00015
 120        5PZ        -0.00002  -0.00002  -0.00002  -0.00011   0.00005
                           6         7         8         9        10
                           O         O         O         O         O
     Eigenvalues --   -19.05986  -2.40841  -2.39742  -2.37311  -1.53763
   1 1   Ti 1S         -0.00033  -0.00961   0.00021  -0.00053   0.00131
   2        2S         -0.00012   1.00064  -0.00356  -0.02740  -0.01652
   3        3S          0.00116   0.00169  -0.00415  -0.00270  -0.00653
   4        4PX         0.00000   0.00549  -0.00026  -0.00189   0.81309
   5        4PY        -0.00000  -0.01524   0.00008   0.00002  -0.47851
   6        4PZ        -0.00000   0.00236   0.00002  -0.00006   0.04633
   7        5PX        -0.00051   0.00297   0.00287   0.00019   0.00427
   8        5PY        -0.00061   0.00324   0.00057   0.00057  -0.00115
   9        5PZ        -0.00003  -0.00006   0.00006  -0.00019  -0.00041
  10        6PX        -0.00005  -0.00090   0.00021   0.00046  -0.00166
  11        6PY         0.00004  -0.00018  -0.00022  -0.00021   0.00212
  12        6PZ         0.00001  -0.00009   0.00002   0.00007   0.00026
  13        7D 0        0.00001   0.00294  -0.00007  -0.00053  -0.00450
  14        7D+1       -0.00001   0.00007  -0.00001  -0.00001   0.00186
  15        7D-1        0.00000   0.00008  -0.00000  -0.00002  -0.00157
  16        7D+2       -0.00001   0.00060   0.00009   0.00091  -0.00517
  17        7D-2       -0.00002   0.00285   0.00008   0.00018  -0.01336
  18        8D 0        0.00013   0.00127   0.00020   0.00257   0.00175
  19        8D+1        0.00003  -0.00009  -0.00009   0.00035  -0.00002
  20        8D-1       -0.00003   0.00020   0.00005  -0.00024   0.00041
  21        8D+2       -0.00005  -0.00022  -0.00121   0.00161   0.00409
  22        8D-2        0.00064  -0.00075  -0.00081   0.00176   0.00225
  23 2   Ti 1S          0.00124  -0.00047  -0.00046  -0.00855  -0.00214
  24        2S          0.00028   0.02651   0.03859   1.00037   0.00605
  25        3S         -0.00047   0.00323   0.00346   0.00537  -0.00132
  26        4PX        -0.00007   0.00162  -0.00150   0.00154  -0.18924
  27        4PY        -0.00012   0.00014  -0.00020  -0.00245  -0.04739
  28        4PZ        -0.00001  -0.00004   0.00004  -0.00001   0.00069
  29        5PX        -0.00141  -0.00022   0.00059   0.00013   0.00497
  30        5PY        -0.00010  -0.00126   0.00112  -0.00039   0.00245
  31        5PZ         0.00001  -0.00015   0.00013  -0.00000   0.00052
  32        6PX        -0.00023  -0.00055   0.00066  -0.00005   0.00430
  33        6PY         0.00010  -0.00029   0.00026   0.00036  -0.00171
  34        6PZ         0.00002   0.00018  -0.00018  -0.00001  -0.00048
  35        7D 0       -0.00008  -0.00046  -0.00044  -0.00106   0.00172
  36        7D+1        0.00001  -0.00002  -0.00002   0.00010   0.00007
  37        7D-1        0.00001  -0.00001  -0.00001   0.00003  -0.00000
  38        7D+2       -0.00004   0.00078   0.00077   0.00284  -0.00237
  39        7D-2        0.00012   0.00023   0.00016   0.00102  -0.00098
  40        8D 0       -0.00061   0.00269   0.00243   0.00232  -0.00216
  41        8D+1        0.00009  -0.00029  -0.00030   0.00008   0.00081
  42        8D-1        0.00009  -0.00022  -0.00019  -0.00001   0.00067
  43        8D+2       -0.00017   0.00367   0.00413  -0.00443  -0.00906
  44        8D-2        0.00160  -0.00095  -0.00112  -0.00056  -0.00254
  45 3   Ti 1S          0.00075   0.00009  -0.00867  -0.00053   0.00133
  46        2S          0.00019   0.00307   0.99990  -0.03985  -0.00044
  47        3S         -0.00070  -0.00386   0.00152  -0.00257   0.00803
  48        4PX         0.00011   0.00022  -0.00482   0.00188   0.12010
  49        4PY        -0.00007   0.00005   0.01729  -0.00034  -0.02208
  50        4PZ        -0.00002  -0.00003  -0.00270   0.00010   0.00020
  51        5PX         0.00006  -0.00277  -0.00263  -0.00022   0.00771
  52        5PY        -0.00008  -0.00027  -0.00327   0.00009   0.00023
  53        5PZ        -0.00002  -0.00006   0.00008   0.00019   0.00012
  54        6PX        -0.00012  -0.00023   0.00078  -0.00039  -0.00162
  55        6PY        -0.00007   0.00016   0.00025  -0.00019   0.00081
  56        6PZ         0.00001  -0.00002   0.00009  -0.00006   0.00005
  57        7D 0       -0.00008  -0.00003   0.00246  -0.00052  -0.00003
  58        7D+1       -0.00001  -0.00001   0.00003  -0.00001  -0.00026
  59        7D-1        0.00001  -0.00000   0.00011  -0.00002   0.00013
  60        7D+2        0.00003   0.00009   0.00032   0.00094   0.00107
  61        7D-2       -0.00015   0.00011   0.00222   0.00015   0.00187
  62        8D 0       -0.00046   0.00027   0.00129   0.00255  -0.00014
  63        8D+1       -0.00006  -0.00008  -0.00012   0.00038   0.00039
  64        8D-1        0.00006   0.00000   0.00023  -0.00028  -0.00012
  65        8D+2        0.00019  -0.00121  -0.00004   0.00129   0.00314
  66        8D-2       -0.00058  -0.00056  -0.00057   0.00212   0.00116
  67 4   O  1S          0.00073  -0.00007  -0.00305  -0.00205  -0.00284
  68        2S         -0.00003  -0.00016   0.00551   0.00339   0.00647
  69        3S          0.00012   0.00106   0.00541   0.00521   0.00276
  70        4PX        -0.00001   0.00001  -0.00392   0.00463   0.00192
  71        4PY         0.00006  -0.00022  -0.00571  -0.00276  -0.00404
  72        4PZ         0.00000  -0.00000   0.00033   0.00010   0.00021
  73        5PX         0.00011   0.00091   0.00194  -0.00341  -0.00229
  74        5PY        -0.00002   0.00077   0.00269  -0.00027  -0.00266
  75        5PZ        -0.00000   0.00005  -0.00012   0.00009  -0.00007
  76 5   O  1S          0.99884  -0.00010  -0.00278  -0.00249  -0.00432
  77        2S          0.00665  -0.00043   0.00438   0.00428   0.00939
  78        3S         -0.00521   0.00262   0.00683   0.00590   0.00539
  79        4PX        -0.00013   0.00005  -0.00499   0.00404  -0.00004
  80        4PY         0.00065   0.00020   0.00382   0.00467   0.00588
  81        4PZ         0.00005   0.00000   0.00043   0.00028   0.00054
  82        5PX         0.00005   0.00111   0.00339  -0.00388  -0.00290
  83        5PY        -0.00097  -0.00002  -0.00067  -0.00113   0.00177
  84        5PZ        -0.00009   0.00008   0.00014   0.00004   0.00018
  85 6   O  1S         -0.00147  -0.00268  -0.00009  -0.00200   0.01714
  86        2S          0.00021   0.00420  -0.00044   0.00329  -0.03701
  87        3S         -0.00078   0.00673   0.00241   0.00555  -0.02384
  88        4PX        -0.00004   0.00494  -0.00003  -0.00335  -0.01901
  89        4PY        -0.00002  -0.00383  -0.00019  -0.00388   0.02077
  90        4PZ         0.00000  -0.00043   0.00000  -0.00023   0.00295
  91        5PX         0.00055  -0.00352  -0.00149   0.00349   0.00677
  92        5PY         0.00037   0.00056  -0.00004   0.00074  -0.00029
  93        5PZ        -0.00000  -0.00011  -0.00009  -0.00006  -0.00042
  94 7   O  1S          0.00008  -0.00242  -0.00011  -0.00305   0.00506
  95        2S         -0.00002   0.00411  -0.00000   0.00550  -0.01111
  96        3S          0.00015   0.00566   0.00090   0.00550  -0.00679
  97        4PX         0.00003   0.00336  -0.00019  -0.00601   0.00233
  98        4PY         0.00000   0.00462   0.00027   0.00409  -0.00992
  99        4PZ        -0.00000  -0.00023  -0.00000  -0.00011   0.00055
 100        5PX        -0.00016  -0.00170  -0.00064   0.00423   0.00660
 101        5PY        -0.00009  -0.00227  -0.00094  -0.00020   0.00026
 102        5PZ         0.00001   0.00008  -0.00001  -0.00008   0.00006
 103 8   O  1S          0.00014  -0.00647   0.00003   0.00018  -0.02891
 104        2S         -0.00010   0.01333  -0.00001  -0.00047   0.06264
 105        3S          0.00044   0.00358  -0.00045   0.00163   0.02857
 106        4PX        -0.00001  -0.00880   0.00008  -0.00004  -0.02778
 107        4PY        -0.00002   0.01061  -0.00009  -0.00020   0.03878
 108        4PZ         0.00001  -0.00077  -0.00001   0.00007  -0.00265
 109        5PX         0.00003   0.00322  -0.00011   0.00080   0.00499
 110        5PY         0.00017  -0.00472   0.00025  -0.00022  -0.00587
 111        5PZ        -0.00005   0.00033   0.00007  -0.00041   0.00042
 112 9   O  1S         -0.00118  -0.00002  -0.00677   0.00028   0.00317
 113        2S          0.00019   0.00002   0.01381  -0.00062  -0.00682
 114        3S         -0.00076  -0.00020   0.00383   0.00148  -0.00232
 115        4PX        -0.00003  -0.00003   0.00919  -0.00010  -0.00257
 116        4PY         0.00000   0.00002  -0.01087   0.00035   0.00439
 117        4PZ         0.00001   0.00001   0.00098  -0.00010  -0.00046
 118        5PX         0.00003   0.00017  -0.00319  -0.00087   0.00015
 119        5PY         0.00020  -0.00027   0.00466   0.00005   0.00035
 120        5PZ        -0.00011  -0.00004  -0.00041   0.00048   0.00030
                          11        12        13        14        15
                           O         O         O         O         O
     Eigenvalues --    -1.53135  -1.52892  -1.52874  -1.52171  -1.51721
   1 1   Ti 1S         -0.00620   0.00179   0.00001  -0.00075  -0.00011
   2        2S          0.01816  -0.00429   0.00035   0.00112  -0.00008
   3        3S         -0.00263  -0.00577   0.00001  -0.00374   0.00057
   4        4PX         0.35288  -0.32220   0.05246  -0.16415   0.00188
   5        4PY         0.77778  -0.30314   0.16117  -0.08642  -0.00034
   6        4PZ        -0.11747   0.13674   0.98091   0.01039  -0.00213
   7        5PX         0.00673   0.00362   0.00039   0.00476  -0.00033
   8        5PY         0.00768  -0.00328   0.00200  -0.00134  -0.00014
   9        5PZ        -0.00028   0.00065   0.00230   0.00018   0.00055
  10        6PX        -0.00083  -0.00078   0.00014  -0.00123  -0.00002
  11        6PY        -0.00303   0.00206  -0.00081  -0.00035  -0.00010
  12        6PZ         0.00001   0.00003   0.00093  -0.00007   0.00029
  13        7D 0        0.00612  -0.00181   0.00132   0.00005   0.00000
  14        7D+1       -0.00012  -0.00008   0.00207  -0.00020   0.00003
  15        7D-1        0.00163  -0.00090  -0.00407  -0.00004   0.00001
  16        7D+2        0.00392  -0.00185   0.00099  -0.00118   0.00004
  17        7D-2        0.00111   0.00158  -0.00034   0.00109  -0.00003
  18        8D 0       -0.00026  -0.00049  -0.00025  -0.00058   0.00014
  19        8D+1       -0.00013  -0.00030   0.00129  -0.00017  -0.00077
  20        8D-1       -0.00008   0.00008  -0.00077   0.00004  -0.00005
  21        8D+2       -0.00156  -0.00415   0.00023  -0.00376   0.00012
  22        8D-2       -0.00409  -0.00026  -0.00129  -0.00081   0.00030
  23 2   Ti 1S         -0.00004   0.00312  -0.00017   0.00222  -0.00012
  24        2S          0.00180  -0.00907   0.00088  -0.00742   0.00015
  25        3S          0.00288   0.00106   0.00111  -0.00077  -0.00095
  26        4PX        -0.23843  -0.05671  -0.00057  -0.21747   0.00285
  27        4PY        -0.00707  -0.05534   0.01150   0.00916   0.00882
  28        4PZ        -0.00175   0.00302   0.02097  -0.00212   0.03110
  29        5PX         0.00481   0.00121   0.00026   0.00488   0.00012
  30        5PY        -0.00482   0.00560  -0.00204  -0.00425  -0.00129
  31        5PZ         0.00003   0.00048   0.00118  -0.00014   0.00102
  32        6PX         0.00204   0.00248  -0.00040   0.00127  -0.00018
  33        6PY         0.00296  -0.00372   0.00105   0.00295   0.00055
  34        6PZ        -0.00012  -0.00040  -0.00143  -0.00002  -0.00124
  35        7D 0        0.00066  -0.00259   0.00024  -0.00209   0.00006
  36        7D+1       -0.00006   0.00001   0.00078  -0.00001  -0.00074
  37        7D-1        0.00000   0.00002   0.00003   0.00004  -0.00007
  38        7D+2       -0.00117   0.00338  -0.00049   0.00319   0.00011
  39        7D-2        0.00171   0.00172   0.00003   0.00062  -0.00015
  40        8D 0        0.00024   0.00276  -0.00041   0.00151   0.00015
  41        8D+1       -0.00062  -0.00068   0.00249  -0.00018  -0.00262
  42        8D-1       -0.00072  -0.00058   0.00013   0.00034   0.00005
  43        8D+2        0.00210   0.01194   0.00086   0.00757  -0.00173
  44        8D-2       -0.00527   0.00503  -0.00185   0.01029   0.00122
  45 3   Ti 1S          0.00069  -0.00310   0.00044   0.00605  -0.00042
  46        2S          0.00526   0.01968  -0.00176  -0.01999   0.00105
  47        3S          0.00308   0.00328  -0.00089  -0.00021   0.00044
  48        4PX         0.37274   0.65011  -0.05368   0.53547   0.01491
  49        4PY        -0.16615  -0.55399   0.05137   0.77404   0.10257
  50        4PZ         0.01239   0.05013  -0.00340  -0.08746   0.99260
  51        5PX         0.00419  -0.00014  -0.00025   0.00426   0.00046
  52        5PY        -0.00001  -0.00237   0.00012   0.00861   0.00142
  53        5PZ        -0.00020  -0.00028   0.00045  -0.00050   0.00318
  54        6PX        -0.00162  -0.00062  -0.00001  -0.00064   0.00004
  55        6PY        -0.00024   0.00276  -0.00040  -0.00330  -0.00048
  56        6PZ         0.00008   0.00020   0.00033   0.00013   0.00048
  57        7D 0        0.00133   0.00548  -0.00054  -0.00689  -0.00099
  58        7D+1       -0.00093  -0.00187   0.00012  -0.00043  -0.00178
  59        7D-1        0.00067   0.00193  -0.00017  -0.00168   0.00480
  60        7D+2        0.00279   0.00563  -0.00053  -0.00458  -0.00073
  61        7D-2        0.00630   0.01234  -0.00104   0.00263   0.00052
  62        8D 0       -0.00058  -0.00160   0.00002   0.00008   0.00019
  63        8D+1        0.00004   0.00013   0.00063  -0.00015  -0.00119
  64        8D-1       -0.00022  -0.00055   0.00010   0.00014   0.00075
  65        8D+2       -0.00056  -0.00502   0.00033  -0.00126  -0.00003
  66        8D-2       -0.00054  -0.00338   0.00003   0.00284   0.00100
  67 4   O  1S         -0.00453   0.00017  -0.00019  -0.01955  -0.00080
  68        2S          0.01020  -0.00047   0.00056   0.04315   0.00167
  69        3S          0.00440   0.00042  -0.00048   0.02599   0.00156
  70        4PX         0.00344   0.00368  -0.00025  -0.01400  -0.00077
  71        4PY        -0.00743  -0.00293  -0.00000  -0.02831  -0.00072
  72        4PZ         0.00039   0.00026   0.00005   0.00138   0.00631
  73        5PX         0.00071   0.00677  -0.00052   0.00839   0.00037
  74        5PY        -0.00033   0.00067   0.00051   0.00487   0.00010
  75        5PZ         0.00004   0.00016   0.00039  -0.00027   0.00018
  76 5   O  1S         -0.00921  -0.01526   0.00135  -0.00258   0.00219
  77        2S          0.01938   0.03279  -0.00299   0.00588  -0.00488
  78        3S          0.01463   0.02158  -0.00153   0.00101  -0.00296
  79        4PX        -0.00729  -0.01877   0.00148   0.00378   0.00343
  80        4PY         0.01156   0.01689  -0.00148   0.00800  -0.00233
  81        4PZ         0.00140   0.00264  -0.00015  -0.00016   0.00502
  82        5PX         0.00182   0.00686   0.00007   0.00023  -0.00139
  83        5PY         0.00177  -0.00170   0.00014  -0.00014   0.00051
  84        5PZ        -0.00021  -0.00045   0.00030   0.00014   0.00128
  85 6   O  1S         -0.00038  -0.00059  -0.00220   0.00041  -0.00010
  86        2S          0.00059   0.00123   0.00494  -0.00040   0.00027
  87        3S          0.00239   0.00042   0.00291  -0.00308  -0.00012
  88        4PX         0.00781   0.00238   0.00369   0.00292  -0.00027
  89        4PY         0.00394  -0.00216  -0.00216   0.00055  -0.00016
  90        4PZ        -0.00080   0.00056   0.00482   0.00002   0.00008
  91        5PX        -0.00321  -0.00425  -0.00133  -0.00334   0.00064
  92        5PY         0.00141   0.00075   0.00049   0.00250  -0.00001
  93        5PZ         0.00030   0.00023   0.00117   0.00004   0.00021
  94 7   O  1S          0.01570  -0.00632   0.00186   0.00082   0.00005
  95        2S         -0.03508   0.01413  -0.00406  -0.00192  -0.00023
  96        3S         -0.02058   0.00923  -0.00311   0.00124   0.00056
  97        4PX        -0.00986   0.00753  -0.00181   0.00738   0.00005
  98        4PY        -0.02208   0.00975  -0.00239   0.00006  -0.00006
  99        4PZ         0.00065   0.00011   0.00523  -0.00008   0.00013
 100        5PX         0.00388  -0.00639   0.00092  -0.00621   0.00011
 101        5PY         0.00273  -0.00473   0.00063  -0.00259   0.00053
 102        5PZ        -0.00028   0.00014   0.00025   0.00013   0.00054
 103 8   O  1S          0.01222  -0.00105   0.00110   0.00128  -0.00005
 104        2S         -0.02623   0.00231  -0.00217  -0.00289   0.00005
 105        3S         -0.01290  -0.00006  -0.00186  -0.00202   0.00029
 106        4PX         0.01929  -0.00472   0.00194   0.00003  -0.00005
 107        4PY        -0.00997  -0.00192   0.00019  -0.00301   0.00007
 108        4PZ         0.00004   0.00137   0.01125   0.00022  -0.00003
 109        5PX        -0.00153  -0.00035  -0.00010  -0.00108   0.00004
 110        5PY         0.00184   0.00116  -0.00022   0.00122  -0.00000
 111        5PZ         0.00001   0.00015  -0.00116   0.00013   0.00009
 112 9   O  1S          0.01239   0.02848  -0.00249  -0.00835   0.00006
 113        2S         -0.02657  -0.06136   0.00541   0.01747  -0.00031
 114        3S         -0.01234  -0.02877   0.00230   0.00919   0.00073
 115        4PX        -0.01148  -0.02897   0.00256   0.01650   0.00008
 116        4PY         0.01676   0.03657  -0.00316  -0.00350   0.00133
 117        4PZ        -0.00154  -0.00326   0.00029   0.00016   0.01163
 118        5PX         0.00160   0.00507  -0.00041   0.00026   0.00005
 119        5PY        -0.00207  -0.00541   0.00046   0.00022  -0.00030
 120        5PZ         0.00026   0.00048   0.00003  -0.00011  -0.00097
                          16        17        18        19        20
                           O         O         O         O         O
     Eigenvalues --    -1.49930  -1.49297  -1.49207  -0.87045  -0.85379
   1 1   Ti 1S          0.00195  -0.00023  -0.00025   0.06264   0.01907
   2        2S         -0.00849   0.00030  -0.00156  -0.09450  -0.02577
   3        3S          0.00475   0.00100   0.00246  -0.04880   0.02684
   4        4PX         0.22478  -0.00517   0.00627   0.06019   0.02960
   5        4PY         0.06524  -0.00044  -0.04813   0.06874   0.08924
   6        4PZ        -0.01131  -0.02243  -0.00272  -0.01134  -0.00094
   7        5PX        -0.00678  -0.00049  -0.00036   0.02138  -0.02013
   8        5PY         0.00257   0.00004  -0.00812   0.00383  -0.01642
   9        5PZ        -0.00054   0.00016  -0.00001   0.00121   0.00053
  10        6PX         0.00105  -0.00001  -0.00029   0.00146   0.00289
  11        6PY        -0.00077  -0.00013   0.00432  -0.00000   0.00196
  12        6PZ         0.00032   0.00122   0.00008  -0.00056  -0.00014
  13        7D 0       -0.00264   0.00012  -0.00044  -0.04548  -0.01169
  14        7D+1        0.00006  -0.00095  -0.00006  -0.00266  -0.00004
  15        7D-1       -0.00005  -0.00005  -0.00001  -0.00179  -0.00322
  16        7D+2        0.00382  -0.00018   0.00044   0.00330  -0.00938
  17        7D-2       -0.00109   0.00008  -0.00179  -0.02315   0.04777
  18        8D 0        0.00255   0.00012   0.00080  -0.01238  -0.00535
  19        8D+1        0.00042  -0.00152   0.00039  -0.00039   0.00010
  20        8D-1       -0.00014  -0.00012  -0.00084   0.00083  -0.00060
  21        8D+2        0.00614   0.00002  -0.00072  -0.00342   0.00014
  22        8D-2        0.00194   0.00022   0.00497  -0.02687   0.00216
  23 2   Ti 1S          0.00103   0.00003  -0.00158   0.08962   0.01032
  24        2S         -0.00286  -0.00009   0.00407  -0.12002  -0.01093
  25        3S          0.00023  -0.00007   0.00290   0.05523   0.00772
  26        4PX         0.90443  -0.01651  -0.09167  -0.01478  -0.10089
  27        4PY         0.08686  -0.04247   0.98238   0.02636  -0.00188
  28        4PZ         0.02077   0.99612   0.04056   0.00042  -0.00351
  29        5PX        -0.01096  -0.00144  -0.00741   0.00209  -0.04115
  30        5PY        -0.00460  -0.00045   0.01194  -0.00267  -0.01106
  31        5PZ         0.00142   0.00843   0.00052  -0.00006   0.00074
  32        6PX        -0.00179  -0.00035  -0.00033  -0.00014  -0.01118
  33        6PY         0.00071   0.00017  -0.00737   0.00060   0.00083
  34        6PZ        -0.00062  -0.00408  -0.00021  -0.00002   0.00051
  35        7D 0       -0.00092  -0.00002   0.00171  -0.05431  -0.00531
  36        7D+1        0.00001   0.00048  -0.00006   0.00414  -0.00119
  37        7D-1       -0.00009  -0.00055  -0.00006   0.00212  -0.00381
  38        7D+2        0.00136  -0.00003   0.00045   0.01643   0.02664
  39        7D-2       -0.00251  -0.00006   0.00121  -0.00224  -0.09052
  40        8D 0       -0.00010  -0.00000   0.00052  -0.02684  -0.00306
  41        8D+1       -0.00014   0.00026  -0.00013   0.00099   0.00031
  42        8D-1       -0.00008  -0.00034  -0.00006  -0.00066  -0.00156
  43        8D+2        0.00245   0.00001   0.00085   0.01636   0.00410
  44        8D-2       -0.00170  -0.00013   0.00069  -0.02352  -0.00828
  45 3   Ti 1S         -0.00118   0.00028  -0.00000   0.06205  -0.04682
  46        2S          0.00802  -0.00032   0.00269  -0.09456   0.05620
  47        3S         -0.00534  -0.00094  -0.00516  -0.04856  -0.03181
  48        4PX         0.31541  -0.00650   0.01629  -0.06263  -0.00151
  49        4PY         0.10095  -0.00109  -0.05792  -0.06575  -0.02352
  50        4PZ        -0.02002  -0.03221  -0.00513   0.01284  -0.01020
  51        5PX        -0.00683  -0.00048  -0.00294  -0.02033  -0.02933
  52        5PY         0.00064  -0.00005  -0.00776  -0.00395   0.00456
  53        5PZ        -0.00073   0.00008  -0.00008  -0.00130   0.00215
  54        6PX         0.00092   0.00000  -0.00029  -0.00152   0.00317
  55        6PY        -0.00015  -0.00010   0.00414  -0.00033  -0.00253
  56        6PZ         0.00039   0.00125   0.00011   0.00061  -0.00056
  57        7D 0        0.00216  -0.00012   0.00060  -0.04468   0.02808
  58        7D+1       -0.00028   0.00094   0.00003  -0.00247   0.00063
  59        7D-1       -0.00001  -0.00004   0.00005  -0.00249  -0.00069
  60        7D+2       -0.00417   0.00017  -0.00023   0.00390  -0.01168
  61        7D-2        0.00270  -0.00012   0.00197  -0.02484   0.07914
  62        8D 0       -0.00309  -0.00015  -0.00038  -0.01165   0.01198
  63        8D+1       -0.00060   0.00163  -0.00038  -0.00031   0.00104
  64        8D-1        0.00030  -0.00012   0.00078   0.00077  -0.00109
  65        8D+2       -0.00634   0.00004  -0.00122  -0.00308  -0.00596
  66        8D-2       -0.00440  -0.00033  -0.00531  -0.02539   0.01543
  67 4   O  1S          0.00523   0.00049  -0.00810  -0.10149  -0.06328
  68        2S         -0.00990  -0.00109   0.01754   0.21556   0.13401
  69        3S         -0.01229  -0.00073   0.01398   0.19457   0.13603
  70        4PX        -0.01830  -0.00080   0.01568   0.00899   0.01422
  71        4PY         0.00508   0.00049  -0.00645  -0.03899  -0.02774
  72        4PZ        -0.00005   0.00427   0.00054   0.00182   0.00188
  73        5PX         0.00822   0.00014  -0.00314  -0.00796  -0.00139
  74        5PY         0.00220  -0.00012   0.00107  -0.01764  -0.01067
  75        5PZ        -0.00017   0.00071   0.00004   0.00083   0.00113
  76 5   O  1S          0.00729   0.00012   0.01061  -0.10819   0.14403
  77        2S         -0.01541  -0.00025  -0.02341   0.22979  -0.30144
  78        3S         -0.01254  -0.00032  -0.01593   0.20923  -0.30535
  79        4PX        -0.01320  -0.00023  -0.01600  -0.00931   0.01572
  80        4PY        -0.01267  -0.00044  -0.01368   0.04212  -0.05113
  81        4PZ        -0.00063   0.00518  -0.00096   0.00409  -0.00525
  82        5PX         0.00816   0.00019   0.00493   0.00503   0.00127
  83        5PY         0.00183   0.00006   0.00323   0.01744  -0.02614
  84        5PZ        -0.00011   0.00014   0.00009  -0.00032  -0.00189
  85 6   O  1S         -0.00654  -0.00011  -0.00904  -0.09990   0.05815
  86        2S          0.01333   0.00021   0.01943   0.21343  -0.12191
  87        3S          0.01303   0.00037   0.01627   0.18913  -0.12788
  88        4PX        -0.01035  -0.00019  -0.01352   0.00920   0.00050
  89        4PY        -0.01137  -0.00038  -0.01219  -0.03972   0.02210
  90        4PZ        -0.00059   0.00427  -0.00086  -0.00388   0.00208
  91        5PX         0.00484   0.00011   0.00362  -0.00519  -0.00601
  92        5PY         0.00096   0.00000   0.00264  -0.01424   0.01001
  93        5PZ        -0.00015   0.00044   0.00012   0.00065   0.00159
  94 7   O  1S         -0.01053  -0.00054   0.01163  -0.12284  -0.15768
  95        2S          0.02225   0.00124  -0.02592   0.25957   0.32803
  96        3S          0.01513   0.00063  -0.01532   0.24154   0.34540
  97        4PX        -0.01973  -0.00091   0.02005  -0.01065  -0.01150
  98        4PY         0.01260   0.00048  -0.00922   0.04642   0.05841
  99        4PZ        -0.00020   0.00605   0.00066  -0.00169  -0.00252
 100        5PX         0.00887   0.00025  -0.00529   0.00539  -0.00388
 101        5PY         0.00067  -0.00013   0.00128   0.02403   0.03430
 102        5PZ        -0.00006   0.00021   0.00004  -0.00105  -0.00174
 103 8   O  1S         -0.00320   0.00014  -0.00144  -0.06475  -0.00293
 104        2S          0.00711  -0.00037   0.00240   0.14375   0.00586
 105        3S          0.00512   0.00016   0.00378   0.10436   0.00497
 106        4PX        -0.00200   0.00009  -0.00134  -0.01870  -0.00339
 107        4PY         0.00570  -0.00024   0.00167   0.02073  -0.00796
 108        4PZ        -0.00041  -0.00028  -0.00011  -0.00223   0.00082
 109        5PX         0.00241   0.00010  -0.00130  -0.00374  -0.00387
 110        5PY        -0.00222   0.00016   0.00027  -0.00164   0.00040
 111        5PZ        -0.00032   0.00029  -0.00061   0.00177  -0.00001
 112 9   O  1S          0.00443  -0.00020   0.00195  -0.06189   0.07134
 113        2S         -0.00970   0.00050  -0.00345   0.13772  -0.15419
 114        3S         -0.00706  -0.00021  -0.00469   0.09807  -0.13328
 115        4PX        -0.00249   0.00013  -0.00194   0.01865  -0.01522
 116        4PY         0.00797  -0.00033   0.00234  -0.02013   0.03065
 117        4PZ        -0.00073  -0.00040  -0.00024   0.00265  -0.00359
 118        5PX         0.00310   0.00011  -0.00127   0.00230  -0.00306
 119        5PY        -0.00230   0.00021  -0.00040   0.00167   0.00393
 120        5PZ        -0.00053   0.00039  -0.00061  -0.00197   0.00105
                          21        22        23        24        25
                           O         O         O         O         O
     Eigenvalues --    -0.85175  -0.83542  -0.81427  -0.80594  -0.35928
   1 1   Ti 1S          0.08132   0.00067   0.03615  -0.00946   0.00701
   2        2S         -0.09714   0.00087  -0.04342   0.00919  -0.00747
   3        3S          0.06886  -0.01572   0.01047  -0.01919  -0.10038
   4        4PX        -0.00494  -0.03647  -0.17704   0.11907   0.01055
   5        4PY         0.04366  -0.05492   0.16463  -0.09128  -0.03030
   6        4PZ        -0.01403  -0.00204  -0.00431   0.00061   0.00076
   7        5PX        -0.05812   0.00992   0.00495   0.00101   0.08153
   8        5PY        -0.00873   0.00628  -0.02216   0.01421   0.02811
   9        5PZ         0.00351   0.00020   0.00175  -0.00085  -0.00258
  10        6PX         0.00720  -0.00040  -0.00041  -0.00122   0.00217
  11        6PY        -0.00247  -0.00233  -0.00005   0.00299  -0.00209
  12        6PZ        -0.00093  -0.00015  -0.00027  -0.00011  -0.00035
  13        7D 0       -0.04932  -0.00072  -0.02559   0.00687  -0.00876
  14        7D+1       -0.00101   0.00045   0.00897  -0.00630  -0.00222
  15        7D-1       -0.00114   0.00200  -0.00847   0.00509   0.00587
  16        7D+2        0.00300   0.00731  -0.02136   0.01269   0.18538
  17        7D-2       -0.08446  -0.05932  -0.05145   0.02620  -0.02727
  18        8D 0       -0.02044   0.00073  -0.00642  -0.00238   0.00034
  19        8D+1       -0.00159  -0.00051   0.00044  -0.00090   0.00000
  20        8D-1        0.00119   0.00107  -0.00151   0.00169   0.00164
  21        8D+2        0.00794  -0.00212  -0.00201  -0.00117   0.03540
  22        8D-2       -0.01791  -0.00222  -0.00927  -0.00156  -0.02176
  23 2   Ti 1S         -0.00686  -0.00636  -0.04730  -0.01176   0.16347
  24        2S          0.00846   0.00630   0.04930   0.01244  -0.11883
  25        3S         -0.00476  -0.00262  -0.02205  -0.00443   0.09680
  26        4PX        -0.13055   0.09540   0.02115  -0.11772   0.00270
  27        4PY        -0.05495  -0.16574   0.02391  -0.05822  -0.00295
  28        4PZ        -0.00641  -0.00104   0.00154  -0.00661  -0.00017
  29        5PX        -0.09847   0.01288  -0.00835   0.04912  -0.00330
  30        5PY        -0.01624   0.03845  -0.00576   0.01186   0.01269
  31        5PZ         0.00144  -0.00057  -0.00039   0.00254   0.00019
  32        6PX        -0.02523   0.00609  -0.00114   0.00652   0.00391
  33        6PY         0.00233  -0.00001   0.00139  -0.00652  -0.00299
  34        6PZ         0.00128   0.00010  -0.00005  -0.00030   0.00011
  35        7D 0        0.00411   0.00315   0.02566   0.00657  -0.16421
  36        7D+1        0.00019  -0.00015  -0.00276  -0.00078   0.01049
  37        7D-1        0.00148  -0.00069  -0.00243  -0.00055  -0.00248
  38        7D+2       -0.01200   0.00333   0.00146  -0.00049   0.13354
  39        7D-2        0.03491  -0.00888  -0.02234  -0.00519  -0.10560
  40        8D 0        0.00172   0.00124   0.01960   0.00430  -0.03674
  41        8D+1       -0.00019   0.00007  -0.00163  -0.00044   0.00170
  42        8D-1        0.00078  -0.00062  -0.00288  -0.00052  -0.00174
  43        8D+2       -0.00119   0.00089   0.00489   0.00025   0.11346
  44        8D-2        0.00664  -0.00565  -0.00286   0.00139   0.00298
  45 3   Ti 1S         -0.06995   0.01646   0.03267   0.02730   0.01105
  46        2S          0.08699  -0.02266  -0.04011  -0.03045  -0.00993
  47        3S         -0.06372   0.01816   0.00317   0.02241  -0.09285
  48        4PX         0.02565  -0.02827   0.11682   0.19284  -0.01213
  49        4PY         0.09788  -0.11418  -0.10098  -0.14309   0.04147
  50        4PZ        -0.01207   0.00052   0.00638   0.00542  -0.00138
  51        5PX        -0.05318   0.01520  -0.00368  -0.00015  -0.07770
  52        5PY        -0.01646   0.01159   0.01389   0.02170  -0.02758
  53        5PZ         0.00288  -0.00049  -0.00173  -0.00199   0.00274
  54        6PX         0.00701  -0.00120   0.00073  -0.00123  -0.00449
  55        6PY        -0.00065  -0.00271  -0.00087   0.00268   0.00357
  56        6PZ        -0.00077   0.00001   0.00042   0.00008   0.00022
  57        7D 0        0.04218  -0.01012  -0.02241  -0.01876  -0.01009
  58        7D+1        0.00064  -0.00016   0.00633   0.01084  -0.00195
  59        7D-1        0.00410  -0.00460  -0.00601  -0.00888   0.01081
  60        7D+2        0.00516  -0.01789  -0.01134  -0.01829   0.21211
  61        7D-2        0.01922   0.06774  -0.04998  -0.05948  -0.03923
  62        8D 0        0.01735  -0.00574  -0.00760  -0.00156  -0.00260
  63        8D+1        0.00085   0.00049   0.00006   0.00104   0.00029
  64        8D-1       -0.00022  -0.00137  -0.00075  -0.00222   0.00200
  65        8D+2       -0.00621   0.00404  -0.00229   0.00054   0.04366
  66        8D-2        0.01131  -0.00195  -0.01032  -0.00366  -0.02049
  67 4   O  1S          0.10967  -0.17001   0.01969   0.04895   0.01572
  68        2S         -0.22702   0.35056  -0.04217  -0.10150  -0.03190
  69        3S         -0.23805   0.38202  -0.03930  -0.11232  -0.05613
  70        4PX         0.00021   0.00066  -0.01195  -0.01270   0.28831
  71        4PY         0.03791  -0.05632   0.01192   0.02447  -0.15704
  72        4PZ        -0.00183   0.00344  -0.00079  -0.00122   0.00237
  73        5PX        -0.00315   0.00761   0.00436   0.00006   0.13638
  74        5PY         0.02457  -0.04060   0.00523   0.01191  -0.05495
  75        5PZ        -0.00117   0.00253   0.00024  -0.00038   0.00119
  76 5   O  1S          0.06037   0.09152   0.04039   0.10925   0.01826
  77        2S         -0.12571  -0.18819  -0.08268  -0.22184  -0.03652
  78        3S         -0.12358  -0.20803  -0.09101  -0.25575  -0.07599
  79        4PX         0.01655   0.00791  -0.01434  -0.00522  -0.02676
  80        4PY        -0.01853  -0.02538  -0.01306  -0.02708   0.16618
  81        4PZ        -0.00230  -0.00276   0.00060  -0.00023   0.00940
  82        5PX        -0.00647   0.00762   0.01412   0.00926   0.00806
  83        5PY        -0.01269  -0.02112  -0.00900  -0.02754   0.06304
  84        5PZ         0.00019  -0.00270  -0.00203  -0.00312   0.00305
  85 6   O  1S         -0.14551  -0.06656   0.10698  -0.08758   0.01579
  86        2S          0.30485   0.13690  -0.21901   0.17846  -0.03161
  87        3S          0.30312   0.15060  -0.24373   0.20281  -0.06704
  88        4PX         0.02442   0.01013   0.01049   0.00272  -0.00155
  89        4PY        -0.04911  -0.01734   0.02928  -0.02034  -0.14066
  90        4PZ        -0.00550  -0.00225   0.00051  -0.00076  -0.00803
  91        5PX        -0.00338   0.00151  -0.01794   0.00306  -0.02224
  92        5PY        -0.02602  -0.01698   0.02443  -0.02151  -0.05299
  93        5PZ        -0.00133  -0.00168   0.00345  -0.00201  -0.00284
  94 7   O  1S         -0.00168   0.12994   0.01550  -0.03122   0.01868
  95        2S          0.00120  -0.26678  -0.03352   0.06394  -0.03716
  96        3S          0.00548  -0.29825  -0.02885   0.07567  -0.06702
  97        4PX         0.01100   0.00140   0.01257  -0.00400  -0.24724
  98        4PY        -0.00364  -0.04151  -0.01220   0.01428   0.18719
  99        4PZ         0.00048   0.00211   0.00039  -0.00041   0.00087
 100        5PX        -0.00369   0.00657  -0.00414  -0.00120  -0.11482
 101        5PY         0.00218  -0.03277  -0.00462   0.00816   0.06399
 102        5PZ         0.00042   0.00144  -0.00042  -0.00022   0.00054
 103 8   O  1S         -0.11907  -0.03023  -0.17402   0.09630  -0.00604
 104        2S          0.25641   0.06572   0.36948  -0.20268   0.01706
 105        3S          0.22837   0.06062   0.37210  -0.21606   0.00796
 106        4PX        -0.02657  -0.00355  -0.02460   0.01119   0.15562
 107        4PY         0.04074   0.01670   0.03768  -0.01952   0.11335
 108        4PZ        -0.00388  -0.00159  -0.00179   0.00051  -0.00438
 109        5PX        -0.00691   0.00404  -0.01173   0.00659   0.07091
 110        5PY         0.00875   0.00434   0.02015  -0.01258   0.04309
 111        5PZ         0.00119   0.00035  -0.00131   0.00183  -0.00030
 112 9   O  1S          0.07750   0.00478  -0.12462  -0.16812  -0.00674
 113        2S         -0.16690  -0.01098   0.26555   0.35554   0.01884
 114        3S         -0.14571  -0.01107   0.26039   0.36720   0.01045
 115        4PX        -0.02044   0.00304   0.01850   0.02107  -0.17712
 116        4PY         0.01986   0.01459  -0.02999  -0.03741  -0.13821
 117        4PZ        -0.00231  -0.00174   0.00224   0.00205   0.00780
 118        5PX        -0.00692   0.00720   0.00768   0.01056  -0.07822
 119        5PY         0.00468   0.00380  -0.01349  -0.02015  -0.05172
 120        5PZ         0.00090   0.00015   0.00050   0.00246   0.00168
                          26        27        28        29        30
                           O         O         O         O         O
     Eigenvalues --    -0.34242  -0.33941  -0.33458  -0.32384  -0.30938
   1 1   Ti 1S         -0.08800   0.02521  -0.11463  -0.04331   0.01355
   2        2S          0.06802  -0.02491   0.09132   0.03583  -0.01333
   3        3S          0.02429  -0.02560   0.05628   0.02406  -0.04176
   4        4PX        -0.01722   0.07347  -0.05254   0.02304  -0.01145
   5        4PY         0.00310   0.07114  -0.01187  -0.03171   0.01502
   6        4PZ         0.00292  -0.00443   0.00363  -0.00099  -0.01095
   7        5PX         0.04802   0.01748   0.02269   0.06440   0.00356
   8        5PY        -0.04358  -0.03729  -0.02168  -0.01696   0.00270
   9        5PZ         0.00190   0.00475   0.00386   0.00543   0.00817
  10        6PX        -0.00161  -0.00322  -0.01377   0.00817   0.00178
  11        6PY         0.00082   0.00125  -0.00431  -0.02011   0.00443
  12        6PZ         0.00045  -0.00037   0.00120   0.00289   0.00199
  13        7D 0        0.11014  -0.01800   0.13737   0.08117  -0.02497
  14        7D+1        0.01363  -0.01290   0.02349  -0.00410   0.19225
  15        7D-1       -0.01273  -0.02144  -0.00960   0.00111  -0.17726
  16        7D+2        0.05887  -0.08276  -0.13315   0.19951   0.01295
  17        7D-2        0.14712   0.26832   0.08904   0.19059  -0.05126
  18        8D 0        0.01415  -0.00538   0.01699  -0.00282   0.00060
  19        8D+1        0.00478  -0.00242   0.00480  -0.00034   0.06102
  20        8D-1       -0.00614  -0.00360  -0.00301  -0.00125  -0.06018
  21        8D+2        0.00360  -0.02133  -0.05298   0.05288   0.00474
  22        8D-2        0.01915   0.01480   0.00934   0.00191   0.00136
  23 2   Ti 1S          0.10977   0.00664  -0.00662   0.00423   0.01590
  24        2S         -0.07493  -0.00578   0.00928  -0.00220  -0.01273
  25        3S          0.03952  -0.01046   0.00229  -0.00231   0.03400
  26        4PX        -0.00214   0.05741   0.06278  -0.14596   0.00035
  27        4PY         0.02596  -0.08598  -0.06237  -0.04129  -0.00219
  28        4PZ         0.00169  -0.00270  -0.00335  -0.01291  -0.00473
  29        5PX        -0.00587   0.02844   0.03049   0.08686   0.00011
  30        5PY        -0.01444   0.07233   0.06869   0.05368   0.00201
  31        5PZ        -0.00022   0.00174   0.00194   0.00613   0.00282
  32        6PX        -0.00233   0.01246   0.02108  -0.03384  -0.00070
  33        6PY        -0.00115  -0.00146  -0.00058   0.02899   0.00004
  34        6PZ         0.00049  -0.00094  -0.00087  -0.00675  -0.00230
  35        7D 0       -0.11244   0.00306   0.00545  -0.00443  -0.02577
  36        7D+1        0.01753   0.00880  -0.00750  -0.00074  -0.10722
  37        7D-1        0.02545   0.00946  -0.00605  -0.00088  -0.10799
  38        7D+2       -0.13501   0.09375  -0.12690  -0.00011  -0.02230
  39        7D-2        0.17433   0.19530  -0.16059  -0.02605   0.05876
  40        8D 0       -0.02554  -0.00370  -0.00028  -0.00189  -0.00746
  41        8D+1        0.00356   0.00427  -0.00393   0.00017  -0.05242
  42        8D-1        0.00472   0.00012   0.00134   0.00092  -0.05041
  43        8D+2       -0.00945   0.06262  -0.08109  -0.00757   0.00282
  44        8D-2        0.05369   0.01547  -0.01000   0.00746  -0.00482
  45 3   Ti 1S         -0.10091   0.07531  -0.04033   0.02475   0.01270
  46        2S          0.07789  -0.06079   0.03952  -0.02153  -0.01282
  47        3S          0.02216  -0.02979   0.07060  -0.00851  -0.04318
  48        4PX         0.01568  -0.04296   0.06791   0.02629   0.01255
  49        4PY        -0.02368  -0.00362   0.06771  -0.01999  -0.01317
  50        4PZ        -0.00256   0.00330  -0.00622  -0.00158   0.00220
  51        5PX        -0.06119   0.02044   0.03256   0.06151  -0.00330
  52        5PY         0.05185  -0.00863  -0.02030  -0.01579  -0.00374
  53        5PZ        -0.00436   0.00218   0.00365   0.00565  -0.00001
  54        6PX         0.00433  -0.00992  -0.00646   0.00910  -0.00122
  55        6PY         0.00100  -0.00340   0.00168  -0.01871  -0.00460
  56        6PZ        -0.00086   0.00105  -0.00073   0.00260  -0.00079
  57        7D 0        0.12257  -0.08447   0.04752  -0.05470  -0.02445
  58        7D+1        0.01395  -0.01718   0.01875   0.00680   0.17399
  59        7D-1       -0.01879   0.00595   0.02062  -0.00095  -0.14438
  60        7D+2        0.01291   0.10836   0.09389  -0.18370   0.00985
  61        7D-2        0.22396  -0.05493  -0.18781  -0.17454  -0.05833
  62        8D 0        0.01673  -0.01126   0.00199   0.00605   0.00129
  63        8D+1        0.00509  -0.00315   0.00358   0.00057   0.05624
  64        8D-1       -0.00769   0.00122   0.00322   0.00154  -0.05031
  65        8D+2       -0.00937   0.04186   0.02767  -0.05097   0.00310
  66        8D-2        0.02398  -0.00239  -0.00746  -0.00127   0.00110
  67 4   O  1S          0.00332   0.00101  -0.01398  -0.00418  -0.00374
  68        2S         -0.00808  -0.00557   0.02823   0.01294   0.00916
  69        3S         -0.00612  -0.00841   0.05294  -0.00353   0.00256
  70        4PX        -0.03837  -0.01552   0.32906  -0.10083  -0.00621
  71        4PY         0.01283  -0.08324   0.16570   0.17371   0.04097
  72        4PZ        -0.00641  -0.00122   0.01031   0.00955  -0.00128
  73        5PX        -0.01052   0.00279   0.16284  -0.05144  -0.00278
  74        5PY         0.00751  -0.03984   0.06775   0.09361   0.02277
  75        5PZ        -0.00245   0.00061   0.00486   0.00476  -0.00274
  76 5   O  1S         -0.00220   0.02089  -0.00076  -0.00000   0.00612
  77        2S          0.00659  -0.04333   0.00388   0.00351  -0.01402
  78        3S         -0.00234  -0.06290  -0.00415   0.00121  -0.00966
  79        4PX         0.40476  -0.11648  -0.08700  -0.17618   0.02725
  80        4PY         0.04723   0.24982  -0.07363  -0.11342   0.03983
  81        4PZ        -0.01599   0.00969   0.01533   0.02207   0.30571
  82        5PX         0.18535  -0.04907  -0.05742  -0.09301   0.01499
  83        5PY         0.01622   0.10960  -0.03611  -0.06969   0.01902
  84        5PZ        -0.00917   0.00432   0.00782   0.01275   0.14259
  85 6   O  1S          0.00162  -0.00193  -0.02638  -0.00485   0.00567
  86        2S         -0.00156   0.00169   0.05581   0.00788  -0.01361
  87        3S         -0.01152   0.00668   0.08103   0.00585  -0.00753
  88        4PX        -0.31487  -0.17509  -0.17146  -0.19617  -0.03860
  89        4PY        -0.07217  -0.04813   0.28314  -0.06862  -0.03970
  90        4PZ         0.00911   0.01920   0.01728   0.02618  -0.29496
  91        5PX        -0.14081  -0.09668  -0.06886  -0.09392  -0.02109
  92        5PY        -0.02554  -0.02832   0.12860  -0.04630  -0.02048
  93        5PZ         0.00570   0.00954   0.00849   0.01441  -0.13515
  94 7   O  1S         -0.00047   0.01332  -0.00489   0.00605  -0.00332
  95        2S         -0.00111  -0.02913   0.01564  -0.01794   0.00811
  96        3S          0.00518  -0.04571   0.01532   0.00550   0.00160
  97        4PX        -0.03450   0.38712  -0.04795  -0.11805   0.01089
  98        4PY        -0.05883   0.16836  -0.15823   0.18480  -0.03472
  99        4PZ         0.00245   0.00780   0.00074   0.00959   0.01511
 100        5PX        -0.02890   0.19088  -0.01343  -0.06019   0.00479
 101        5PY        -0.02757   0.07720  -0.07584   0.10132  -0.01926
 102        5PZ         0.00045   0.00310   0.00184   0.00501   0.01063
 103 8   O  1S         -0.01898  -0.00765  -0.01572  -0.02122   0.00691
 104        2S          0.03392   0.01489   0.02892   0.04319  -0.01308
 105        3S          0.08228   0.01873   0.06703   0.07079  -0.02681
 106        4PX         0.14584  -0.04887   0.01405   0.32395  -0.06240
 107        4PY        -0.12400  -0.22570  -0.18952  -0.05513   0.09348
 108        4PZ         0.03841   0.02772   0.03878   0.03196   0.27993
 109        5PX         0.05337  -0.02575   0.00490   0.14089  -0.02883
 110        5PY        -0.04018  -0.09696  -0.06508  -0.01807   0.03869
 111        5PZ         0.01487   0.01361   0.01622   0.01548   0.12473
 112 9   O  1S         -0.02364   0.00979   0.00119   0.01805   0.00742
 113        2S          0.04255  -0.01837  -0.00354  -0.03756  -0.01402
 114        3S          0.10036  -0.04046   0.00835  -0.05722  -0.02896
 115        4PX        -0.13674  -0.00662  -0.09204   0.28323   0.06879
 116        4PY         0.19098  -0.11993  -0.16559  -0.02804  -0.09304
 117        4PZ        -0.05542   0.02552   0.01742   0.03054  -0.22135
 118        5PX        -0.04830  -0.00203  -0.03943   0.12216   0.03152
 119        5PY         0.06469  -0.03872  -0.07384  -0.00839  -0.03771
 120        5PZ        -0.02195   0.01067   0.00930   0.01496  -0.09614
                          31        32        33        34        35
                           O         O         O         O         O
     Eigenvalues --    -0.30571  -0.30172  -0.29259  -0.29163  -0.28903
   1 1   Ti 1S         -0.00670   0.01179  -0.07877   0.03183   0.09612
   2        2S          0.00343  -0.00898   0.05389  -0.03003  -0.06830
   3        3S          0.00524   0.00759  -0.07738  -0.07445   0.09324
   4        4PX        -0.00470  -0.00464  -0.04094  -0.04343   0.04363
[...]
   8         O                -2.397425          1.338254
   9         O                -2.373114          1.340044
  10         O                -1.537634          2.323010
  11         O                -1.531346          2.347609
  12         O                -1.528918          2.338735
  13         O                -1.528736          2.393269
  14         O                -1.521711          2.359589
  15         O                -1.517212          2.392930
  16         O                -1.499298          2.393943
  17         O                -1.492972          2.390429
  18         O                -1.492070          2.369084
  19         O                -0.870446          2.827336
  20         O                -0.853790          2.997506
  21         O                -0.851752          2.959731
  22         O                -0.835423          3.073598
  23         O                -0.814273          3.151301
  24         O                -0.805936          3.206495
  25         O                -0.359275          2.214706
  26         O                -0.342421          2.461197
  27         O                -0.339412          2.364533
  28         O                -0.334577          2.303563
  29         O                -0.323840          2.391321
  30         O                -0.309383          2.205068
  31         O                -0.305708          2.016339
  32         O                -0.301718          2.229889
  33         O                -0.292587          2.116173
  34         O                -0.291630          2.558921
  35         O                -0.289026          2.223432
  36         O                -0.257254          2.200063
  37         O                -0.243763          2.368547
  38         O                -0.240904          2.618773
  39         O                -0.234181          2.280862
  40         O                -0.232328          2.478097
  41         O                -0.227694          2.534986
  42         O                -0.196385          2.678236
  43         O                -0.148541          2.479297
  44         V                -0.068113          2.693029
  45         V                -0.058653          2.772475
  46         V                -0.056680          3.407253
  47         V                -0.042863          3.411501
  48         V                -0.013467          2.124652
  49         V                -0.008388          3.474382
  50         V                -0.004244          1.265447
  51         V                 0.006535          3.089097
  52         V                 0.010573          2.949897
  53         V                 0.014083          3.487784
  54         V                 0.015832          0.997963
  55         V                 0.017079          0.720757
  56         V                 0.020123          3.289642
  57         V                 0.024978          0.541336
  58         V                 0.026509          1.933640
  59         V                 0.030359          1.189726
  60         V                 0.030804          1.365995
  61         V                 0.035962          2.035692
  62         V                 0.039296          2.940327
  63         V                 0.047771          0.281184
  64         V                 0.050920          0.291566
  65         V                 0.058148          0.438168
  66         V                 0.100242          0.661506
  67         V                 0.106167          2.017507
  68         V                 0.117171          0.722730
  69         V                 0.131656          2.204057
  70         V                 0.132966          3.007392
  71         V                 0.133980          0.939640
  72         V                 0.137740          1.948666
  73         V                 0.159123          0.845713
  74         V                 0.164920          0.977971
  75         V                 0.178442          2.230039
  76         V                 0.201299          1.329128
  77         V                 0.208527          1.136597
  78         V                 0.260100          2.049817
  79         V                 0.325711          1.731330
  80         V                 0.331623          1.525362
  81         V                 0.350562          1.790814
  82         V                 0.353486          1.759140
  83         V                 0.356351          1.489329
  84         V                 0.363150          1.590387
  85         V                 0.373803          1.393136
  86         V                 0.392596          1.677074
  87         V                 0.410253          1.506147
  88         V                 0.436176          1.371772
  89         V                 0.439295          1.559806
  90         V                 0.470574          1.419067
  91         V                 0.506843          1.676946
  92         V                 0.518457          1.577033
  93         V                 0.564071          1.925130
  94         V                 0.709878          2.411858
  95         V                 0.752406          3.157343
  96         V                 0.774720          3.060474
  97         V                 0.778585          2.943342
  98         V                 0.798621          3.068285
  99         V                 0.818867          2.985733
 100         V                 0.821845          3.025420
 101         V                 0.836615          3.071065
 102         V                 0.861052          2.916372
 103         V                 0.874237          3.139585
 104         V                 0.913858          2.928636
 105         V                 0.922125          2.999162
 106         V                 0.930797          2.986683
 107         V                 0.937693          2.939139
 108         V                 1.006345          2.994304
 109         V                 1.082310          3.193178
 110         V                 1.086458          3.327785
 111         V                 1.111341          3.358688
 112         V                 1.377974          3.625798
 113         V                 1.433903          4.192441
 114         V                 1.580233          4.305072
 115         V                 1.728027          4.312464
 116         V                 1.768077          4.251339
 117         V                 1.982040          4.856401
 118         V                 4.163000          2.892012
 119         V                 9.485842          2.856943
 120         V                15.453879          3.820913
 Orbital energies and kinetic energies (beta):
                                 1                 2
   1         O               -19.070169         29.125490
   2         O               -19.068511         29.126331
   3         O               -19.063612         29.125766
   4         O               -19.062167         29.126148
   5         O               -19.061709         29.126004
   6         O               -19.060455         29.125434
   7         O                -2.406839          1.339559
   8         O                -2.396414          1.338348
   9         O                -2.345766          1.339073
  10         O                -1.536479          2.327301
  11         O                -1.529166          2.338576
  12         O                -1.527914          2.352759
  13         O                -1.526444          2.394050
  14         O                -1.519947          2.362032
  15         O                -1.515778          2.393231
  16         O                -1.482824          2.374931
  17         O                -1.468138          2.361622
  18         O                -1.448722          2.392175
  19         O                -0.871101          2.833216
  20         O                -0.854842          3.003069
  21         O                -0.852228          2.961735
  22         O                -0.836453          3.079917
  23         O                -0.814260          3.153513
  24         O                -0.806121          3.209059
  25         O                -0.357285          2.193695
  26         O                -0.340661          2.385736
  27         O                -0.339251          2.427460
  28         O                -0.334115          2.285130
  29         O                -0.323439          2.391263
  30         O                -0.309170          2.205581
  31         O                -0.305042          2.020691
  32         O                -0.301879          2.229052
  33         O                -0.292817          2.151485
  34         O                -0.290741          2.507813
  35         O                -0.289321          2.242893
  36         O                -0.257188          2.202518
  37         O                -0.244642          2.336288
  38         O                -0.237275          2.576962
  39         O                -0.235638          2.280320
  40         O                -0.232854          2.497878
  41         O                -0.228071          2.530747
  42         O                -0.197080          2.676200
  43         V                -0.069134          2.409319
  44         V                -0.060002          2.408110
  45         V                -0.055701          3.488864
  46         V                -0.042247          3.418704
  47         V                -0.018967          2.468779
  48         V                -0.010744          1.850767
  49         V                -0.004020          2.117724
  50         V                -0.002835          2.675866
  51         V                 0.007496          2.955689
  52         V                 0.013715          2.877873
  53         V                 0.016510          0.454400
  54         V                 0.017770          1.353427
  55         V                 0.019421          3.444242
  56         V                 0.024518          3.055692
  57         V                 0.026472          0.379304
  58         V                 0.028652          1.575998
  59         V                 0.030747          0.817068
  60         V                 0.037368          0.736791
  61         V                 0.039238          3.224998
  62         V                 0.048915          2.858841
  63         V                 0.049465          1.200249
  64         V                 0.050883          0.328686
  65         V                 0.058045          0.456901
  66         V                 0.107312          0.703618
  67         V                 0.116357          1.545246
  68         V                 0.118337          1.779494
  69         V                 0.134323          1.837462
  70         V                 0.139145          2.325860
  71         V                 0.142068          0.577613
  72         V                 0.143689          2.374461
  73         V                 0.159606          0.863132
  74         V                 0.165780          0.988072
  75         V                 0.183853          2.828441
  76         V                 0.207326          1.440489
  77         V                 0.209693          1.231249
  78         V                 0.262656          2.047486
  79         V                 0.332907          1.517396
  80         V                 0.348560          1.964811
  81         V                 0.352027          1.900736
  82         V                 0.355008          1.560004
  83         V                 0.356516          1.644611
  84         V                 0.363516          1.591576
  85         V                 0.374464          1.395014
  86         V                 0.395113          1.684509
  87         V                 0.411372          1.500340
  88         V                 0.437049          1.364505
  89         V                 0.442670          1.545368
  90         V                 0.470688          1.423597
  91         V                 0.508918          1.666504
  92         V                 0.524613          1.589553
  93         V                 0.567871          1.957419
  94         V                 0.710372          2.407481
  95         V                 0.752744          3.157241
  96         V                 0.776591          3.051739
  97         V                 0.778840          2.937122
  98         V                 0.798716          3.064988
  99         V                 0.818752          2.980328
 100         V                 0.821666          3.022865
 101         V                 0.836523          3.068741
 102         V                 0.861152          2.914678
 103         V                 0.874451          3.140569
 104         V                 0.913963          2.925154
 105         V                 0.921932          2.995737
 106         V                 0.931114          2.983122
 107         V                 0.937735          2.935249
 108         V                 1.006472          2.987774
 109         V                 1.082820          3.193526
 110         V                 1.086627          3.321290
 111         V                 1.111622          3.355906
 112         V                 1.378208          3.625845
 113         V                 1.433827          4.192178
 114         V                 1.580290          4.302502
 115         V                 1.728032          4.310416
 116         V                 1.768181          4.249482
 117         V                 1.981843          4.856222
 118         V                 4.163808          2.892689
 119         V                 9.484862          2.856894
 120         V                15.447659          3.821111
 Total kinetic energy from orbitals= 5.234746211354D+02
                          Isotropic Fermi Contact Couplings
        Atom                 a.u.       MegaHertz       Gauss      10(-4) cm-1
     1  Ti(47)             0.00000      -0.00013      -0.00005      -0.00004
     2  Ti(47)            -0.00000       0.00023       0.00008       0.00008
     3  Ti(47)             0.00000      -0.00012      -0.00004      -0.00004
     4  O(17)              0.00525      -3.18337      -1.13590      -1.06186
     5  O(17)             -0.00202       1.22691       0.43779       0.40925
     6  O(17)             -0.00025       0.15178       0.05416       0.05063
     7  O(17)              0.00313      -1.89436      -0.67596      -0.63189
     8  O(17)             -0.00068       0.41173       0.14692       0.13734
     9  O(17)             -0.00040       0.24355       0.08691       0.08124
 --------------------------------------------------------
       Center         ----  Spin Dipole Couplings  ----
                      3XX-RR        3YY-RR        3ZZ-RR
 --------------------------------------------------------
     1   Atom       -0.010387     -0.000340      0.010727
     2   Atom       -0.288995     -0.087630      0.376625
     3   Atom       -0.005088      0.000823      0.004265
     4   Atom       -0.003340      0.021258     -0.017918
     5   Atom        0.018326      0.006523     -0.024849
     6   Atom        0.013803      0.008627     -0.022430
     7   Atom       -0.004879      0.029411     -0.024532
     8   Atom        0.034600     -0.021776     -0.012824
     9   Atom        0.029661     -0.018727     -0.010934
 --------------------------------------------------------
                        XY            XZ            YZ
 --------------------------------------------------------
     1   Atom        0.018870      0.004060     -0.001993
     2   Atom        0.010334     -0.036708     -0.018207
     3   Atom        0.012242      0.002941     -0.001196
     4   Atom       -0.010125     -0.006466      0.002939
     5   Atom        0.007298     -0.000211     -0.001160
     6   Atom        0.002570      0.000234      0.000424
     7   Atom       -0.020091     -0.010484      0.006040
     8   Atom       -0.011236      0.017060      0.001433
     9   Atom       -0.010339      0.015942      0.000333
 --------------------------------------------------------


 ---------------------------------------------------------------------------------
              Anisotropic Spin Dipole Couplings in Principal Axis System
 ---------------------------------------------------------------------------------

       Atom             a.u.   MegaHertz   Gauss  10(-4) cm-1        Axes

              Baa    -0.0254     0.766     0.273     0.256  0.7886 -0.6027 -0.1218
     1 Ti(47) Bbb     0.0110    -0.332    -0.118    -0.111 -0.0720 -0.2872  0.9552
              Bcc     0.0144    -0.434    -0.155    -0.145  0.6106  0.7445  0.2699
 
              Baa    -0.2914     8.780     3.133     2.929  0.9975 -0.0458  0.0536
     2 Ti(47) Bbb    -0.0880     2.650     0.946     0.884  0.0435  0.9981  0.0426
              Bcc     0.3794   -11.430    -4.078    -3.813 -0.0554 -0.0401  0.9977
 
              Baa    -0.0152     0.458     0.163     0.153  0.7795 -0.6069 -0.1550
     3 Ti(47) Bbb     0.0046    -0.139    -0.050    -0.046  0.0302 -0.2108  0.9771
              Bcc     0.0106    -0.319    -0.114    -0.106  0.6257  0.7663  0.1459
 
              Baa    -0.0204     1.476     0.527     0.492  0.3666  0.0235  0.9301
     4 O(17)  Bbb    -0.0051     0.367     0.131     0.122  0.8611  0.3700 -0.3488
              Bcc     0.0255    -1.843    -0.658    -0.615 -0.3524  0.9287  0.1154
 
              Baa    -0.0249     1.801     0.643     0.601 -0.0014  0.0372  0.9993
     5 O(17)  Bbb     0.0031    -0.222    -0.079    -0.074 -0.4317  0.9014 -0.0342
              Bcc     0.0218    -1.579    -0.563    -0.527  0.9020  0.4315 -0.0148
 
              Baa    -0.0224     1.624     0.579     0.542 -0.0055 -0.0132  0.9999
     6 O(17)  Bbb     0.0076    -0.548    -0.195    -0.183 -0.3815  0.9243  0.0101
              Bcc     0.0149    -1.076    -0.384    -0.359  0.9244  0.3814  0.0101
 
              Baa    -0.0292     2.114     0.754     0.705  0.4337  0.0560  0.8993
     7 O(17)  Bbb    -0.0110     0.795     0.284     0.265  0.7909  0.4545 -0.4097
              Bcc     0.0402    -2.909    -1.038    -0.970 -0.4317  0.8890  0.1529
 
              Baa    -0.0263     1.901     0.678     0.634  0.2822  0.8481 -0.4483
     8 O(17)  Bbb    -0.0155     1.121     0.400     0.374 -0.1746  0.5050  0.8453
              Bcc     0.0418    -3.022    -1.078    -1.008  0.9433 -0.1602  0.2906
 
              Baa    -0.0226     1.633     0.583     0.545  0.3011  0.8477 -0.4368
     9 O(17)  Bbb    -0.0143     1.034     0.369     0.345 -0.1882  0.5019  0.8442
              Bcc     0.0369    -2.667    -0.952    -0.890  0.9348 -0.1720  0.3106
 

 ---------------------------------------------------------------------------------


 Test job not archived.
 1\1\GINC-POP-OS\SP\UB3LYP\LANL2DZ\O6Ti3(1-,2)\RHEINHEIMER\31-May-2021\
 0\\#t B3LYP/LANL2DZ # SCRF=(Solvent=Ethanol) # Gfinput IOP(6/7=3) Pop=
 hirshfeld Density Test # Units(Ang,Deg)\\3-tio2.pdb\\-1,2\Ti,-1,-1.641
 ,1.281,-0.014\Ti,-1,1.10770513,1.41319636,-0.03946004\Ti,-1,3.85641027
 ,1.54539273,-0.06492008\O,-1,2.59824652,0.24907049,0.26629683\O,-1,2.4
 3626749,2.63074102,-0.53886675\O,-1,-0.25649358,0.15493477,0.47724339\
 O,-1,-0.28140306,2.5579148,-0.35239315\O,-1,-2.55712953,2.59862657,-0.
 32144578\O,-1,4.77709533,0.23630425,0.21797797\\Version=ES64L-G16RevA.
 03\State=2-A\HF=-626.1461863\S2=0.754294\S2-1=0.\S2A=0.750015\RMSD=3.2
 55e-09\Dipole=-0.2389254,0.1429112,0.0000572\Quadrupole=-3.2831946,-11
 .2691013,14.5522959,31.6149675,-4.6712389,9.1173065\PG=C01 [X(O6Ti3)]\
 \@


 HIGGLEDY-PIGGLEDY
 NIC'LAUS COPERNICUS
 LOOKED AT THE UNIVERSE,
 SPOKE TO THE THRONG;
 GIVE UP YOUR PTOLOMY,
 RISE UP AND FOLLOW ME,
 HELIOCENTRICALLY
 PTOLEMY'S WRONG.
   -- NANCY L. STARK
 Job cpu time:       0 days  0 hours  4 minutes 49.2 seconds.
 Elapsed time:       0 days  0 hours  0 minutes 39.5 seconds.
 File lengths (MBytes):  RWF=     38 Int=      0 D2E=      0 Chk=      3 Scr=      1
 Normal termination of Gaussian 16 at Mon May 31 13:08:36 2021.
