 Entering Gaussian System, Link 0=g16
 Input=risendronate_anion_scf_g09.com
 Output=risendronate_anion_scf_g09.log
 Initial command:
 /usr/local//g16/l1.exe "/home/orison/scrgauss/Gau-22458.inp" -scrdir="/home/orison/scrgauss/"
 Entering Link 1 = /usr/local//g16/l1.exe PID=     22460.
  
 Copyright (c) 1988,1990,1992,1993,1995,1998,2003,2009,2016,
            Gaussian, Inc.  All Rights Reserved.
  
 This is part of the Gaussian(R) 16 program.  It is based on
 the Gaussian(R) 09 system (copyright 2009, Gaussian, Inc.),
 the Gaussian(R) 03 system (copyright 2003, Gaussian, Inc.),
 the Gaussian(R) 98 system (copyright 1998, Gaussian, Inc.),
 the Gaussian(R) 94 system (copyright 1995, Gaussian, Inc.),
 the Gaussian 92(TM) system (copyright 1992, Gaussian, Inc.),
 the Gaussian 90(TM) system (copyright 1990, Gaussian, Inc.),
 the Gaussian 88(TM) system (copyright 1988, Gaussian, Inc.),
 the Gaussian 86(TM) system (copyright 1986, Carnegie Mellon
 University), and the Gaussian 82(TM) system (copyright 1983,
 Carnegie Mellon University). Gaussian is a federally registered
 trademark of Gaussian, Inc.
  
 This software contains proprietary and confidential information,
 including trade secrets, belonging to Gaussian, Inc.
  
 This software is provided under written license and may be
 used, copied, transmitted, or stored only in accord with that
 written license.
  
 The following legend is applicable only to US Government
 contracts under FAR:
  
                    RESTRICTED RIGHTS LEGEND
  
 Use, reproduction and disclosure by the US Government is
 subject to restrictions as set forth in subparagraphs (a)
 and (c) of the Commercial Computer Software - Restricted
 Rights clause in FAR 52.227-19.
  
 Gaussian, Inc.
 340 Quinnipiac St., Bldg. 40, Wallingford CT 06492
  
  
 ---------------------------------------------------------------
 Warning -- This program may not be used in any manner that
 competes with the business of Gaussian, Inc. or will provide
 assistance to any competitor of Gaussian, Inc.  The licensee
 of this program is prohibited from giving any competitor of
 Gaussian, Inc. access to this program.  By using this program,
 the user acknowledges that Gaussian, Inc. is engaged in the
 business of creating and licensing software in the field of
 computational chemistry and represents and warrants to the
 licensee that it is not a competitor of Gaussian, Inc. and that
 it will not use this program in any manner prohibited above.
 ---------------------------------------------------------------
  

 Cite this work as:
 Gaussian 16, Revision A.03,
 M. J. Frisch, G. W. Trucks, H. B. Schlegel, G. E. Scuseria, 
 M. A. Robb, J. R. Cheeseman, G. Scalmani, V. Barone, 
 G. A. Petersson, H. Nakatsuji, X. Li, M. Caricato, A. V. Marenich, 
 J. Bloino, B. G. Janesko, R. Gomperts, B. Mennucci, H. P. Hratchian, 
 J. V. Ortiz, A. F. Izmaylov, J. L. Sonnenberg, D. Williams-Young, 
 F. Ding, F. Lipparini, F. Egidi, J. Goings, B. Peng, A. Petrone, 
 T. Henderson, D. Ranasinghe, V. G. Zakrzewski, J. Gao, N. Rega, 
 G. Zheng, W. Liang, M. Hada, M. Ehara, K. Toyota, R. Fukuda, 
 J. Hasegawa, M. Ishida, T. Nakajima, Y. Honda, O. Kitao, H. Nakai, 
 T. Vreven, K. Throssell, J. A. Montgomery, Jr., J. E. Peralta, 
 F. Ogliaro, M. J. Bearpark, J. J. Heyd, E. N. Brothers, K. N. Kudin, 
 V. N. Staroverov, T. A. Keith, R. Kobayashi, J. Normand, 
 K. Raghavachari, A. P. Rendell, J. C. Burant, S. S. Iyengar, 
 J. Tomasi, M. Cossi, J. M. Millam, M. Klene, C. Adamo, R. Cammi, 
 J. W. Ochterski, R. L. Martin, K. Morokuma, O. Farkas, 
 J. B. Foresman, and D. J. Fox, Gaussian, Inc., Wallingford CT, 2016.
 
 ******************************************
 Gaussian 16:  EM64L-G16RevA.03 25-Dec-2016
                22-Jan-2021 
 ******************************************
 %nproc=8
 Will use up to    8 processors via shared memory.
 %Mem=4GB
 ----------------------------------------------------------------------
 #t B3LYP/6-31G(d,p) # Gfinput IOP(6/7=3) Pop=hirshfeld Density Test # 
 Units(Ang,Deg)
 ----------------------------------------------------------------------
 ------------------------
 risendronate-opt-g09.log
 ------------------------
 Symbolic Z-matrix:
 Charge = -1 Multiplicity = 2
 C                     0.61352   0.3651   -0.31802 
 O                     0.43733   0.71687  -1.68379 
 H                     0.90785   0.06818  -2.23002 
 P                     2.39156   0.69457   0.16221 
 P                     0.4717   -1.47913  -0.04612 
 O                     2.6424    2.28176   0.08758 
 H                     3.16723   2.5059   -0.69487 
 O                     2.47343   0.44675   1.73759 
 H                     2.03466  -0.41641   1.94181 
 O                     1.39449  -2.07287  -1.21477 
 H                     2.29041  -1.65614  -1.1569 
 O                    -0.9389   -2.04141  -0.55502 
 H                    -1.64571  -1.9056    0.0961 
 O                     0.84212  -1.75517   1.37924 
 O                     3.26924  -0.11979  -0.74201 
 C                    -0.36783   1.20581   0.52548 
 H                    -0.17405   2.25311   0.26867 
 H                    -0.11361   1.08176   1.58103 
 C                    -1.82642   0.87339   0.30767 
 C                    -2.51331   1.23913  -0.85696 
 C                    -2.54452   0.15829   1.27656 
 C                    -3.8479    0.8712   -0.99945 
 H                    -2.00004   1.79063  -1.63756 
 N                    -3.82376  -0.21985   1.14629 
 H                    -2.05591  -0.12731   2.20867 
 C                    -4.45543   0.13736   0.0217 
 H                    -4.40953   1.13947  -1.88858 
 H                    -5.49345  -0.17694  -0.06634 
 
                    Distance matrix (angstroms):
                    1          2          3          4          5
     1  C    0.000000
     2  O    1.421307   0.000000
     3  H    1.957175   0.969822   0.000000
     4  P    1.870988   2.688350   2.883838   0.000000
     5  P    1.869553   2.739628   2.711792   2.907617   0.000000
     6  O    2.820364   3.232486   3.644156   1.608621   4.344434
     7  H    3.353576   3.410417   3.661142   2.148759   4.854608
     8  O    2.773349   3.990552   4.282089   1.596853   3.301145
     9  H    2.781587   4.120772   4.348413   2.128058   2.743006
    10  O    2.712521   2.986433   2.419018   3.247914   1.603063
    11  H    2.757008   3.056582   2.456896   2.697428   2.138427
    12  O    2.873581   3.282718   3.265958   4.369436   1.601540
    13  H    3.229813   3.792679   3.978355   4.802583   2.164608
    14  O    2.725526   3.956891   4.044216   3.143748   1.498352
    15  O    2.732716   3.099462   2.797440   1.500373   3.187209
    16  C    1.543157   2.401712   3.242583   2.829764   2.870617
    17  H    2.128157   2.558499   3.491114   3.003787   3.800750
    18  H    2.156087   3.331025   4.073675   2.904969   3.090042
    19  C    2.569660   3.019102   3.816342   4.224274   3.307699
    20  C    3.291117   3.108485   3.867913   5.039147   4.117849
    21  C    3.543822   4.238763   4.921695   5.088640   3.678071
    22  C    4.541448   4.342273   4.977580   6.349135   5.009175
    23  H    3.256381   2.663807   3.431278   4.871003   4.396989
    24  N    4.709121   5.200354   5.819842   6.358835   4.632343
    25  H    3.708435   4.698950   5.340792   4.964219   3.646959
    26  C    5.085423   5.213792   5.817199   6.871062   5.185967
    27  H    5.319524   4.869557   5.434958   7.117479   5.837648
    28  H    6.136142   6.212020   6.761526   7.936318   6.105663
                    6          7          8          9         10
     6  O    0.000000
     7  H    0.968459   0.000000
     8  O    2.473529   3.261644   0.000000
     9  H    3.329811   4.095692   0.989581   0.000000
    10  O    4.713406   4.937412   4.028527   3.621833   0.000000
    11  H    4.144838   4.278418   3.582417   3.347289   0.989791
    12  O    5.650526   6.128449   4.805309   4.209138   2.425071
    13  H    5.993492   6.576576   5.019497   4.378294   3.314993
    14  O    4.605019   5.278711   2.763700   1.879073   2.671130
    15  O    2.616981   2.628094   2.665089   2.969017   2.748220
    16  C    3.226594   3.959310   3.180903   3.226383   4.109013
    17  H    2.822411   3.486612   3.525594   3.847614   4.834771
    18  H    3.356484   4.239317   2.668431   2.643812   4.476891
    19  C    4.690661   5.348525   4.551418   4.386563   4.623044
    20  C    5.344210   5.822329   5.676895   5.590882   5.135005
    21  C    5.729480   6.482430   5.047334   4.662802   5.167262
    22  C    6.730179   7.209512   6.901504   6.701751   6.016358
    23  H    4.976903   5.301033   5.762776   5.827668   5.160254
    24  N    7.013569   7.726158   6.359921   5.915452   6.019836
    25  H    5.690058   6.530355   4.589813   4.109447   5.235495
    26  C    7.414984   8.014262   7.144865   6.790784   6.374601
    27  H    7.412135   7.790980   7.810513   7.656385   6.667818
    28  H    8.500644   9.088457   8.192334   7.795027   7.235825
                   11         12         13         14         15
    11  H    0.000000
    12  O    3.307436   0.000000
    13  H    4.138270   0.970558   0.000000
    14  O    2.922218   2.644868   2.803279   0.000000
    15  O    1.868318   4.629906   5.296063   3.614565   0.000000
    16  C    4.252928   3.469588   3.390902   3.310633   4.073331
    17  H    4.836119   4.439185   4.414797   4.281621   4.302136
    18  H    4.557595   3.872726   3.671058   3.000385   4.275969
    19  C    5.048938   3.166699   2.792884   3.895985   5.296601
    20  C    5.616785   3.651284   3.398585   5.022483   5.941192
    21  C    5.708803   3.281978   2.541847   3.891170   6.160500
    22  C    6.640112   4.140422   3.709513   5.878118   7.190412
    23  H    5.524420   4.120976   4.097956   5.454508   5.676004
    24  N    6.689595   3.812473   2.947635   4.917510   7.340731
    25  H    5.705688   3.542523   2.791690   3.425852   6.088004
    26  C    7.078990   4.176796   3.474730   5.786935   7.766589
    27  H    7.296574   4.893021   4.566192   6.829159   7.865359
    28  H    7.997864   4.945602   4.221345   6.687298   8.788887
                   16         17         18         19         20
    16  C    0.000000
    17  H    1.095600   0.000000
    18  H    1.092796   1.760114   0.000000
    19  C    1.511764   2.153015   2.144430   0.000000
    20  C    2.552515   2.786994   3.424488   1.400695   0.000000
    21  C    2.529703   3.320127   2.618172   1.402064   2.391881
    22  C    3.814218   4.124922   4.544022   2.407270   1.391692
    23  H    2.772159   2.679896   3.797425   2.157636   1.084866
    24  N    3.789639   4.495123   3.955806   2.426484   2.803375
    25  H    2.731291   3.601582   2.372406   2.160525   3.387397
    26  C    4.254862   4.782009   4.709013   2.745034   2.399536
    27  H    4.708230   4.881927   5.522359   3.400995   2.160977
    28  H    5.341744   5.857763   5.765486   3.832778   3.392870
                   21         22         23         24         25
    21  C    0.000000
    22  C    2.717952   0.000000
    23  H    3.384241   2.160352   0.000000
    24  N    1.340304   2.407317   3.888162   0.000000
    25  H    1.090475   3.807924   4.298267   2.064584   0.000000
    26  C    2.286195   1.396553   3.393433   1.338398   3.257389
    27  H    3.802511   1.085334   2.508518   3.376583   4.892005
    28  H    3.257598   2.162667   4.306272   2.064020   4.122477
                   26         27         28
    26  C    0.000000
    27  H    2.157661   0.000000
    28  H    1.088127   2.495672   0.000000
 Framework group  C1[X(C7H11NO7P2)]
 Deg. of freedom    78
                         Standard orientation:                         
 ---------------------------------------------------------------------
 Center     Atomic      Atomic             Coordinates (Angstroms)
 Number     Number       Type             X           Y           Z
 ---------------------------------------------------------------------
      1          6           0       -0.613520   -0.365099   -0.318019
      2          8           0       -0.437330   -0.716869   -1.683789
      3          1           0       -0.907850   -0.068179   -2.230019
      4         15           0       -2.391560   -0.694569    0.162211
      5         15           0       -0.471700    1.479131   -0.046119
      6          8           0       -2.642400   -2.281759    0.087581
      7          1           0       -3.167230   -2.505900   -0.694869
      8          8           0       -2.473430   -0.446749    1.737591
      9          1           0       -2.034660    0.416411    1.941811
     10          8           0       -1.394490    2.072871   -1.214769
     11          1           0       -2.290410    1.656141   -1.156899
     12          8           0        0.938900    2.041411   -0.555019
     13          1           0        1.645710    1.905601    0.096101
     14          8           0       -0.842120    1.755171    1.379241
     15          8           0       -3.269240    0.119790   -0.742009
     16          6           0        0.367830   -1.205809    0.525481
     17          1           0        0.174050   -2.253109    0.268671
     18          1           0        0.113610   -1.081759    1.581031
     19          6           0        1.826420   -0.873389    0.307671
     20          6           0        2.513310   -1.239129   -0.856959
     21          6           0        2.544520   -0.158289    1.276561
     22          6           0        3.847900   -0.871199   -0.999449
     23          1           0        2.000040   -1.790629   -1.637559
     24          7           0        3.823760    0.219851    1.146291
     25          1           0        2.055910    0.127311    2.208671
     26          6           0        4.455430   -0.137359    0.021701
     27          1           0        4.409530   -1.139469   -1.888579
     28          1           0        5.493450    0.176941   -0.066339
 ---------------------------------------------------------------------
 Rotational constants (GHZ):           0.7279921           0.2844406           0.2567218
 AO basis set in the form of general basis input (Overlap normalization):
      1 0
 S   6 1.00       0.000000000000
      0.3047524880D+04  0.1834737132D-02
      0.4573695180D+03  0.1403732281D-01
      0.1039486850D+03  0.6884262226D-01
      0.2921015530D+02  0.2321844432D+00
      0.9286662960D+01  0.4679413484D+00
      0.3163926960D+01  0.3623119853D+00
 SP   3 1.00       0.000000000000
      0.7868272350D+01 -0.1193324198D+00  0.6899906659D-01
      0.1881288540D+01 -0.1608541517D+00  0.3164239610D+00
      0.5442492580D+00  0.1143456438D+01  0.7443082909D+00
 SP   1 1.00       0.000000000000
      0.1687144782D+00  0.1000000000D+01  0.1000000000D+01
 D   1 1.00       0.000000000000
      0.8000000000D+00  0.1000000000D+01
 ****
      2 0
 S   6 1.00       0.000000000000
      0.5484671660D+04  0.1831074430D-02
      0.8252349460D+03  0.1395017220D-01
      0.1880469580D+03  0.6844507810D-01
      0.5296450000D+02  0.2327143360D+00
      0.1689757040D+02  0.4701928980D+00
      0.5799635340D+01  0.3585208530D+00
 SP   3 1.00       0.000000000000
      0.1553961625D+02 -0.1107775495D+00  0.7087426823D-01
      0.3599933586D+01 -0.1480262627D+00  0.3397528391D+00
      0.1013761750D+01  0.1130767015D+01  0.7271585773D+00
 SP   1 1.00       0.000000000000
      0.2700058226D+00  0.1000000000D+01  0.1000000000D+01
 D   1 1.00       0.000000000000
      0.8000000000D+00  0.1000000000D+01
 ****
      3 0
 S   3 1.00       0.000000000000
      0.1873113696D+02  0.3349460434D-01
      0.2825394365D+01  0.2347269535D+00
      0.6401216923D+00  0.8137573261D+00
 S   1 1.00       0.000000000000
      0.1612777588D+00  0.1000000000D+01
 P   1 1.00       0.000000000000
      0.1100000000D+01  0.1000000000D+01
 ****
      4 0
 S   6 1.00       0.000000000000
      0.1941330000D+05  0.1851598923D-02
      0.2909420000D+04  0.1420619174D-01
      0.6613640000D+03  0.6999945928D-01
      0.1857590000D+03  0.2400788603D+00
      0.5919430000D+02  0.4847617180D+00
      0.2003100000D+02  0.3351998050D+00
 SP   6 1.00       0.000000000000
      0.3394780000D+03 -0.2782170105D-02  0.4564616191D-02
      0.8101010000D+02 -0.3604990135D-01  0.3369357188D-01
      0.2587800000D+02 -0.1166310044D+00  0.1397548834D+00
      0.9452210000D+01  0.9683280364D-01  0.3393617168D+00
      0.3665660000D+01  0.6144180231D+00  0.4509206237D+00
      0.1467460000D+01  0.4037980152D+00  0.2385858009D+00
 SP   3 1.00       0.000000000000
      0.2156230000D+01 -0.2529241139D+00 -0.1776531273D-01
      0.7489970000D+00  0.3285184468D-01  0.2740581964D+00
      0.2831450000D+00  0.1081254762D+01  0.7854215630D+00
 SP   1 1.00       0.000000000000
      0.9983170000D-01  0.1000000000D+01  0.1000000000D+01
 D   1 1.00       0.000000000000
      0.5500000000D+00  0.1000000000D+01
 ****
      5 0
 S   6 1.00       0.000000000000
      0.1941330000D+05  0.1851598923D-02
      0.2909420000D+04  0.1420619174D-01
      0.6613640000D+03  0.6999945928D-01
      0.1857590000D+03  0.2400788603D+00
      0.5919430000D+02  0.4847617180D+00
      0.2003100000D+02  0.3351998050D+00
 SP   6 1.00       0.000000000000
      0.3394780000D+03 -0.2782170105D-02  0.4564616191D-02
      0.8101010000D+02 -0.3604990135D-01  0.3369357188D-01
      0.2587800000D+02 -0.1166310044D+00  0.1397548834D+00
      0.9452210000D+01  0.9683280364D-01  0.3393617168D+00
      0.3665660000D+01  0.6144180231D+00  0.4509206237D+00
      0.1467460000D+01  0.4037980152D+00  0.2385858009D+00
 SP   3 1.00       0.000000000000
      0.2156230000D+01 -0.2529241139D+00 -0.1776531273D-01
      0.7489970000D+00  0.3285184468D-01  0.2740581964D+00
      0.2831450000D+00  0.1081254762D+01  0.7854215630D+00
 SP   1 1.00       0.000000000000
      0.9983170000D-01  0.1000000000D+01  0.1000000000D+01
 D   1 1.00       0.000000000000
      0.5500000000D+00  0.1000000000D+01
 ****
      6 0
 S   6 1.00       0.000000000000
      0.5484671660D+04  0.1831074430D-02
      0.8252349460D+03  0.1395017220D-01
      0.1880469580D+03  0.6844507810D-01
      0.5296450000D+02  0.2327143360D+00
      0.1689757040D+02  0.4701928980D+00
      0.5799635340D+01  0.3585208530D+00
 SP   3 1.00       0.000000000000
      0.1553961625D+02 -0.1107775495D+00  0.7087426823D-01
      0.3599933586D+01 -0.1480262627D+00  0.3397528391D+00
      0.1013761750D+01  0.1130767015D+01  0.7271585773D+00
 SP   1 1.00       0.000000000000
      0.2700058226D+00  0.1000000000D+01  0.1000000000D+01
 D   1 1.00       0.000000000000
      0.8000000000D+00  0.1000000000D+01
 ****
      7 0
 S   3 1.00       0.000000000000
      0.1873113696D+02  0.3349460434D-01
      0.2825394365D+01  0.2347269535D+00
      0.6401216923D+00  0.8137573261D+00
 S   1 1.00       0.000000000000
      0.1612777588D+00  0.1000000000D+01
 P   1 1.00       0.000000000000
      0.1100000000D+01  0.1000000000D+01
 ****
      8 0
 S   6 1.00       0.000000000000
      0.5484671660D+04  0.1831074430D-02
      0.8252349460D+03  0.1395017220D-01
      0.1880469580D+03  0.6844507810D-01
      0.5296450000D+02  0.2327143360D+00
      0.1689757040D+02  0.4701928980D+00
      0.5799635340D+01  0.3585208530D+00
 SP   3 1.00       0.000000000000
      0.1553961625D+02 -0.1107775495D+00  0.7087426823D-01
      0.3599933586D+01 -0.1480262627D+00  0.3397528391D+00
      0.1013761750D+01  0.1130767015D+01  0.7271585773D+00
 SP   1 1.00       0.000000000000
      0.2700058226D+00  0.1000000000D+01  0.1000000000D+01
 D   1 1.00       0.000000000000
      0.8000000000D+00  0.1000000000D+01
 ****
      9 0
 S   3 1.00       0.000000000000
      0.1873113696D+02  0.3349460434D-01
      0.2825394365D+01  0.2347269535D+00
      0.6401216923D+00  0.8137573261D+00
 S   1 1.00       0.000000000000
      0.1612777588D+00  0.1000000000D+01
 P   1 1.00       0.000000000000
      0.1100000000D+01  0.1000000000D+01
 ****
     10 0
 S   6 1.00       0.000000000000
      0.5484671660D+04  0.1831074430D-02
      0.8252349460D+03  0.1395017220D-01
      0.1880469580D+03  0.6844507810D-01
      0.5296450000D+02  0.2327143360D+00
      0.1689757040D+02  0.4701928980D+00
      0.5799635340D+01  0.3585208530D+00
 SP   3 1.00       0.000000000000
      0.1553961625D+02 -0.1107775495D+00  0.7087426823D-01
      0.3599933586D+01 -0.1480262627D+00  0.3397528391D+00
      0.1013761750D+01  0.1130767015D+01  0.7271585773D+00
 SP   1 1.00       0.000000000000
      0.2700058226D+00  0.1000000000D+01  0.1000000000D+01
 D   1 1.00       0.000000000000
      0.8000000000D+00  0.1000000000D+01
 ****
     11 0
 S   3 1.00       0.000000000000
      0.1873113696D+02  0.3349460434D-01
      0.2825394365D+01  0.2347269535D+00
      0.6401216923D+00  0.8137573261D+00
 S   1 1.00       0.000000000000
      0.1612777588D+00  0.1000000000D+01
 P   1 1.00       0.000000000000
      0.1100000000D+01  0.1000000000D+01
 ****
     12 0
 S   6 1.00       0.000000000000
      0.5484671660D+04  0.1831074430D-02
      0.8252349460D+03  0.1395017220D-01
      0.1880469580D+03  0.6844507810D-01
      0.5296450000D+02  0.2327143360D+00
      0.1689757040D+02  0.4701928980D+00
      0.5799635340D+01  0.3585208530D+00
 SP   3 1.00       0.000000000000
      0.1553961625D+02 -0.1107775495D+00  0.7087426823D-01
      0.3599933586D+01 -0.1480262627D+00  0.3397528391D+00
      0.1013761750D+01  0.1130767015D+01  0.7271585773D+00
 SP   1 1.00       0.000000000000
      0.2700058226D+00  0.1000000000D+01  0.1000000000D+01
 D   1 1.00       0.000000000000
      0.8000000000D+00  0.1000000000D+01
 ****
     13 0
 S   3 1.00       0.000000000000
      0.1873113696D+02  0.3349460434D-01
      0.2825394365D+01  0.2347269535D+00
      0.6401216923D+00  0.8137573261D+00
 S   1 1.00       0.000000000000
      0.1612777588D+00  0.1000000000D+01
 P   1 1.00       0.000000000000
      0.1100000000D+01  0.1000000000D+01
 ****
     14 0
 S   6 1.00       0.000000000000
      0.5484671660D+04  0.1831074430D-02
      0.8252349460D+03  0.1395017220D-01
      0.1880469580D+03  0.6844507810D-01
      0.5296450000D+02  0.2327143360D+00
      0.1689757040D+02  0.4701928980D+00
      0.5799635340D+01  0.3585208530D+00
 SP   3 1.00       0.000000000000
      0.1553961625D+02 -0.1107775495D+00  0.7087426823D-01
      0.3599933586D+01 -0.1480262627D+00  0.3397528391D+00
      0.1013761750D+01  0.1130767015D+01  0.7271585773D+00
 SP   1 1.00       0.000000000000
      0.2700058226D+00  0.1000000000D+01  0.1000000000D+01
 D   1 1.00       0.000000000000
      0.8000000000D+00  0.1000000000D+01
 ****
     15 0
 S   6 1.00       0.000000000000
      0.5484671660D+04  0.1831074430D-02
      0.8252349460D+03  0.1395017220D-01
      0.1880469580D+03  0.6844507810D-01
      0.5296450000D+02  0.2327143360D+00
      0.1689757040D+02  0.4701928980D+00
      0.5799635340D+01  0.3585208530D+00
 SP   3 1.00       0.000000000000
      0.1553961625D+02 -0.1107775495D+00  0.7087426823D-01
      0.3599933586D+01 -0.1480262627D+00  0.3397528391D+00
      0.1013761750D+01  0.1130767015D+01  0.7271585773D+00
 SP   1 1.00       0.000000000000
      0.2700058226D+00  0.1000000000D+01  0.1000000000D+01
 D   1 1.00       0.000000000000
      0.8000000000D+00  0.1000000000D+01
 ****
     16 0
 S   6 1.00       0.000000000000
      0.3047524880D+04  0.1834737132D-02
      0.4573695180D+03  0.1403732281D-01
      0.1039486850D+03  0.6884262226D-01
      0.2921015530D+02  0.2321844432D+00
      0.9286662960D+01  0.4679413484D+00
      0.3163926960D+01  0.3623119853D+00
 SP   3 1.00       0.000000000000
      0.7868272350D+01 -0.1193324198D+00  0.6899906659D-01
      0.1881288540D+01 -0.1608541517D+00  0.3164239610D+00
      0.5442492580D+00  0.1143456438D+01  0.7443082909D+00
 SP   1 1.00       0.000000000000
      0.1687144782D+00  0.1000000000D+01  0.1000000000D+01
 D   1 1.00       0.000000000000
      0.8000000000D+00  0.1000000000D+01
 ****
     17 0
 S   3 1.00       0.000000000000
      0.1873113696D+02  0.3349460434D-01
      0.2825394365D+01  0.2347269535D+00
      0.6401216923D+00  0.8137573261D+00
 S   1 1.00       0.000000000000
      0.1612777588D+00  0.1000000000D+01
 P   1 1.00       0.000000000000
      0.1100000000D+01  0.1000000000D+01
 ****
     18 0
 S   3 1.00       0.000000000000
      0.1873113696D+02  0.3349460434D-01
      0.2825394365D+01  0.2347269535D+00
      0.6401216923D+00  0.8137573261D+00
 S   1 1.00       0.000000000000
      0.1612777588D+00  0.1000000000D+01
 P   1 1.00       0.000000000000
      0.1100000000D+01  0.1000000000D+01
 ****
     19 0
 S   6 1.00       0.000000000000
      0.3047524880D+04  0.1834737132D-02
      0.4573695180D+03  0.1403732281D-01
      0.1039486850D+03  0.6884262226D-01
      0.2921015530D+02  0.2321844432D+00
      0.9286662960D+01  0.4679413484D+00
      0.3163926960D+01  0.3623119853D+00
 SP   3 1.00       0.000000000000
      0.7868272350D+01 -0.1193324198D+00  0.6899906659D-01
      0.1881288540D+01 -0.1608541517D+00  0.3164239610D+00
      0.5442492580D+00  0.1143456438D+01  0.7443082909D+00
 SP   1 1.00       0.000000000000
      0.1687144782D+00  0.1000000000D+01  0.1000000000D+01
 D   1 1.00       0.000000000000
      0.8000000000D+00  0.1000000000D+01
 ****
     20 0
 S   6 1.00       0.000000000000
      0.3047524880D+04  0.1834737132D-02
      0.4573695180D+03  0.1403732281D-01
      0.1039486850D+03  0.6884262226D-01
      0.2921015530D+02  0.2321844432D+00
      0.9286662960D+01  0.4679413484D+00
      0.3163926960D+01  0.3623119853D+00
 SP   3 1.00       0.000000000000
      0.7868272350D+01 -0.1193324198D+00  0.6899906659D-01
      0.1881288540D+01 -0.1608541517D+00  0.3164239610D+00
      0.5442492580D+00  0.1143456438D+01  0.7443082909D+00
 SP   1 1.00       0.000000000000
      0.1687144782D+00  0.1000000000D+01  0.1000000000D+01
 D   1 1.00       0.000000000000
      0.8000000000D+00  0.1000000000D+01
 ****
     21 0
 S   6 1.00       0.000000000000
      0.3047524880D+04  0.1834737132D-02
      0.4573695180D+03  0.1403732281D-01
      0.1039486850D+03  0.6884262226D-01
      0.2921015530D+02  0.2321844432D+00
      0.9286662960D+01  0.4679413484D+00
      0.3163926960D+01  0.3623119853D+00
 SP   3 1.00       0.000000000000
      0.7868272350D+01 -0.1193324198D+00  0.6899906659D-01
      0.1881288540D+01 -0.1608541517D+00  0.3164239610D+00
      0.5442492580D+00  0.1143456438D+01  0.7443082909D+00
 SP   1 1.00       0.000000000000
      0.1687144782D+00  0.1000000000D+01  0.1000000000D+01
 D   1 1.00       0.000000000000
      0.8000000000D+00  0.1000000000D+01
 ****
     22 0
 S   6 1.00       0.000000000000
      0.3047524880D+04  0.1834737132D-02
      0.4573695180D+03  0.1403732281D-01
      0.1039486850D+03  0.6884262226D-01
      0.2921015530D+02  0.2321844432D+00
      0.9286662960D+01  0.4679413484D+00
      0.3163926960D+01  0.3623119853D+00
 SP   3 1.00       0.000000000000
      0.7868272350D+01 -0.1193324198D+00  0.6899906659D-01
      0.1881288540D+01 -0.1608541517D+00  0.3164239610D+00
      0.5442492580D+00  0.1143456438D+01  0.7443082909D+00
 SP   1 1.00       0.000000000000
      0.1687144782D+00  0.1000000000D+01  0.1000000000D+01
 D   1 1.00       0.000000000000
      0.8000000000D+00  0.1000000000D+01
 ****
     23 0
 S   3 1.00       0.000000000000
      0.1873113696D+02  0.3349460434D-01
      0.2825394365D+01  0.2347269535D+00
      0.6401216923D+00  0.8137573261D+00
 S   1 1.00       0.000000000000
      0.1612777588D+00  0.1000000000D+01
 P   1 1.00       0.000000000000
      0.1100000000D+01  0.1000000000D+01
 ****
     24 0
 S   6 1.00       0.000000000000
      0.4173511460D+04  0.1834772160D-02
      0.6274579110D+03  0.1399462700D-01
      0.1429020930D+03  0.6858655181D-01
      0.4023432930D+02  0.2322408730D+00
      0.1282021290D+02  0.4690699481D+00
      0.4390437010D+01  0.3604551991D+00
 SP   3 1.00       0.000000000000
      0.1162636186D+02 -0.1149611817D+00  0.6757974388D-01
      0.2716279807D+01 -0.1691174786D+00  0.3239072959D+00
      0.7722183966D+00  0.1145851947D+01  0.7408951398D+00
 SP   1 1.00       0.000000000000
      0.2120314975D+00  0.1000000000D+01  0.1000000000D+01
 D   1 1.00       0.000000000000
      0.8000000000D+00  0.1000000000D+01
 ****
     25 0
 S   3 1.00       0.000000000000
      0.1873113696D+02  0.3349460434D-01
      0.2825394365D+01  0.2347269535D+00
      0.6401216923D+00  0.8137573261D+00
 S   1 1.00       0.000000000000
      0.1612777588D+00  0.1000000000D+01
 P   1 1.00       0.000000000000
      0.1100000000D+01  0.1000000000D+01
 ****
     26 0
 S   6 1.00       0.000000000000
      0.3047524880D+04  0.1834737132D-02
      0.4573695180D+03  0.1403732281D-01
      0.1039486850D+03  0.6884262226D-01
      0.2921015530D+02  0.2321844432D+00
      0.9286662960D+01  0.4679413484D+00
      0.3163926960D+01  0.3623119853D+00
 SP   3 1.00       0.000000000000
      0.7868272350D+01 -0.1193324198D+00  0.6899906659D-01
      0.1881288540D+01 -0.1608541517D+00  0.3164239610D+00
      0.5442492580D+00  0.1143456438D+01  0.7443082909D+00
 SP   1 1.00       0.000000000000
      0.1687144782D+00  0.1000000000D+01  0.1000000000D+01
 D   1 1.00       0.000000000000
      0.8000000000D+00  0.1000000000D+01
 ****
     27 0
 S   3 1.00       0.000000000000
      0.1873113696D+02  0.3349460434D-01
      0.2825394365D+01  0.2347269535D+00
      0.6401216923D+00  0.8137573261D+00
 S   1 1.00       0.000000000000
      0.1612777588D+00  0.1000000000D+01
 P   1 1.00       0.000000000000
      0.1100000000D+01  0.1000000000D+01
 ****
     28 0
 S   3 1.00       0.000000000000
      0.1873113696D+02  0.3349460434D-01
      0.2825394365D+01  0.2347269535D+00
      0.6401216923D+00  0.8137573261D+00
 S   1 1.00       0.000000000000
      0.1612777588D+00  0.1000000000D+01
 P   1 1.00       0.000000000000
      0.1100000000D+01  0.1000000000D+01
 ****

   318 basis functions,   601 primitive gaussians,   318 cartesian basis functions
    74 alpha electrons       73 beta electrons
       nuclear repulsion energy      1704.7687367158 Hartrees.
 NAtoms=   28 NActive=   28 NUniq=   28 SFac= 1.00D+00 NAtFMM=   60 NAOKFM=F Big=F
 ExpMin= 9.98D-02 ExpMax= 1.94D+04 ExpMxC= 2.91D+03 IAcc=3 IRadAn=         5 AccDes= 0.00D+00
 Harris functional with IExCor=  402 and IRadAn=       5 diagonalized for initial guess.
 HarFok:  IExCor=  402 AccDes= 0.00D+00 IRadAn=         5 IDoV= 1 UseB2=F ITyADJ=14
 ICtDFT=  3500011 ScaDFX=  1.000000  1.000000  1.000000  1.000000
 FoFCou: FMM=F IPFlag=           0 FMFlag=      100000 FMFlg1=           0
         NFxFlg=           0 DoJE=T BraDBF=F KetDBF=T FulRan=T
         wScrn=  0.000000 ICntrl=       500 IOpCl=  0 I1Cent=   200000004 NGrid=           0
         NMat0=    1 NMatS0=      1 NMatT0=    0 NMatD0=    1 NMtDS0=    0 NMtDT0=    0
 Petite list used in FoFCou.
 Initial guess <Sx>= 0.0000 <Sy>= 0.0000 <Sz>= 0.5000 <S**2>= 0.7500 S= 0.5000
 Integral accuracy reduced to 1.0D-05 until final iterations.
 Initial convergence to 1.0D-05 achieved.  Increase integral accuracy.
 SCF Done:  E(UB3LYP) =  -1537.52707635     A.U. after   29 cycles
            NFock= 29  Conv=0.90D-08     -V/T= 2.0064
 <Sx>= 0.0000 <Sy>= 0.0000 <Sz>= 0.5000 <S**2>= 0.7576 S= 0.5038
 <L.S>= 0.000000000000E+00
 Annihilation of the first spin contaminant:
 S**2 before annihilation     0.7576,   after     0.7500

 **********************************************************************

            Population analysis using the SCF density.

 **********************************************************************

 Orbital symmetries:
 Alpha Orbitals:
       Occupied  (A) (A) (A) (A) (A) (A) (A) (A) (A) (A) (A) (A)
                 (A) (A) (A) (A) (A) (A) (A) (A) (A) (A) (A) (A)
                 (A) (A) (A) (A) (A) (A) (A) (A) (A) (A) (A) (A)
                 (A) (A) (A) (A) (A) (A) (A) (A) (A) (A) (A) (A)
                 (A) (A) (A) (A) (A) (A) (A) (A) (A) (A) (A) (A)
                 (A) (A) (A) (A) (A) (A) (A) (A) (A) (A) (A) (A)
                 (A) (A)
       Virtual   (A) (A) (A) (A) (A) (A) (A) (A) (A) (A) (A) (A)
                 (A) (A) (A) (A) (A) (A) (A) (A) (A) (A) (A) (A)
                 (A) (A) (A) (A) (A) (A) (A) (A) (A) (A) (A) (A)
                 (A) (A) (A) (A) (A) (A) (A) (A) (A) (A) (A) (A)
                 (A) (A) (A) (A) (A) (A) (A) (A) (A) (A) (A) (A)
                 (A) (A) (A) (A) (A) (A) (A) (A) (A) (A) (A) (A)
                 (A) (A) (A) (A) (A) (A) (A) (A) (A) (A) (A) (A)
                 (A) (A) (A) (A) (A) (A) (A) (A) (A) (A) (A) (A)
                 (A) (A) (A) (A) (A) (A) (A) (A) (A) (A) (A) (A)
                 (A) (A) (A) (A) (A) (A) (A) (A) (A) (A) (A) (A)
                 (A) (A) (A) (A) (A) (A) (A) (A) (A) (A) (A) (A)
                 (A) (A) (A) (A) (A) (A) (A) (A) (A) (A) (A) (A)
                 (A) (A) (A) (A) (A) (A) (A) (A) (A) (A) (A) (A)
                 (A) (A) (A) (A) (A) (A) (A) (A) (A) (A) (A) (A)
                 (A) (A) (A) (A) (A) (A) (A) (A) (A) (A) (A) (A)
                 (A) (A) (A) (A) (A) (A) (A) (A) (A) (A) (A) (A)
                 (A) (A) (A) (A) (A) (A) (A) (A) (A) (A) (A) (A)
                 (A) (A) (A) (A) (A) (A) (A) (A) (A) (A) (A) (A)
                 (A) (A) (A) (A) (A) (A) (A) (A) (A) (A) (A) (A)
                 (A) (A) (A) (A) (A) (A) (A) (A) (A) (A) (A) (A)
                 (A) (A) (A) (A)
 Beta  Orbitals:
       Occupied  (A) (A) (A) (A) (A) (A) (A) (A) (A) (A) (A) (A)
                 (A) (A) (A) (A) (A) (A) (A) (A) (A) (A) (A) (A)
                 (A) (A) (A) (A) (A) (A) (A) (A) (A) (A) (A) (A)
                 (A) (A) (A) (A) (A) (A) (A) (A) (A) (A) (A) (A)
                 (A) (A) (A) (A) (A) (A) (A) (A) (A) (A) (A) (A)
                 (A) (A) (A) (A) (A) (A) (A) (A) (A) (A) (A) (A)
                 (A)
       Virtual   (A) (A) (A) (A) (A) (A) (A) (A) (A) (A) (A) (A)
                 (A) (A) (A) (A) (A) (A) (A) (A) (A) (A) (A) (A)
                 (A) (A) (A) (A) (A) (A) (A) (A) (A) (A) (A) (A)
                 (A) (A) (A) (A) (A) (A) (A) (A) (A) (A) (A) (A)
                 (A) (A) (A) (A) (A) (A) (A) (A) (A) (A) (A) (A)
                 (A) (A) (A) (A) (A) (A) (A) (A) (A) (A) (A) (A)
                 (A) (A) (A) (A) (A) (A) (A) (A) (A) (A) (A) (A)
                 (A) (A) (A) (A) (A) (A) (A) (A) (A) (A) (A) (A)
                 (A) (A) (A) (A) (A) (A) (A) (A) (A) (A) (A) (A)
                 (A) (A) (A) (A) (A) (A) (A) (A) (A) (A) (A) (A)
                 (A) (A) (A) (A) (A) (A) (A) (A) (A) (A) (A) (A)
                 (A) (A) (A) (A) (A) (A) (A) (A) (A) (A) (A) (A)
                 (A) (A) (A) (A) (A) (A) (A) (A) (A) (A) (A) (A)
                 (A) (A) (A) (A) (A) (A) (A) (A) (A) (A) (A) (A)
                 (A) (A) (A) (A) (A) (A) (A) (A) (A) (A) (A) (A)
                 (A) (A) (A) (A) (A) (A) (A) (A) (A) (A) (A) (A)
                 (A) (A) (A) (A) (A) (A) (A) (A) (A) (A) (A) (A)
                 (A) (A) (A) (A) (A) (A) (A) (A) (A) (A) (A) (A)
                 (A) (A) (A) (A) (A) (A) (A) (A) (A) (A) (A) (A)
                 (A) (A) (A) (A) (A) (A) (A) (A) (A) (A) (A) (A)
                 (A) (A) (A) (A) (A)
 The electronic state is 2-A.
 Alpha  occ. eigenvalues --  -77.11848 -77.11243 -19.09435 -19.07688 -19.07610
 Alpha  occ. eigenvalues --  -19.06808 -19.05999 -19.02469 -19.01319 -14.11929
 Alpha  occ. eigenvalues --  -10.14970 -10.07128 -10.04070 -10.03234 -10.02777
 Alpha  occ. eigenvalues --  -10.01421  -9.99483  -6.56886  -6.56154  -4.73329
 Alpha  occ. eigenvalues --   -4.73192  -4.72950  -4.72581  -4.72478  -4.72263
 Alpha  occ. eigenvalues --   -0.98557  -0.97066  -0.93532  -0.93033  -0.92032
 Alpha  occ. eigenvalues --   -0.87237  -0.86094  -0.75078  -0.67030  -0.61274
 Alpha  occ. eigenvalues --   -0.58647  -0.54050  -0.53486  -0.50269  -0.45748
 Alpha  occ. eigenvalues --   -0.44149  -0.43136  -0.42718  -0.41321  -0.39684
 Alpha  occ. eigenvalues --   -0.36024  -0.35114  -0.34427  -0.33334  -0.33264
 Alpha  occ. eigenvalues --   -0.30964  -0.30850  -0.29297  -0.29212  -0.28104
 Alpha  occ. eigenvalues --   -0.27260  -0.26581  -0.25929  -0.24694  -0.24519
 Alpha  occ. eigenvalues --   -0.24264  -0.22908  -0.21974  -0.21392  -0.21039
 Alpha  occ. eigenvalues --   -0.20483  -0.19602  -0.19128  -0.18394  -0.14986
 Alpha  occ. eigenvalues --   -0.11197  -0.08871  -0.06978   0.09577
 Alpha virt. eigenvalues --    0.12624   0.15441   0.16331   0.16505   0.18514
 Alpha virt. eigenvalues --    0.21469   0.22617   0.23537   0.24367   0.24626
 Alpha virt. eigenvalues --    0.25236   0.26287   0.26570   0.27477   0.29028
 Alpha virt. eigenvalues --    0.31017   0.31248   0.32085   0.32595   0.33056
 Alpha virt. eigenvalues --    0.33662   0.36943   0.37298   0.38403   0.41627
 Alpha virt. eigenvalues --    0.42131   0.42998   0.47536   0.47842   0.49626
 Alpha virt. eigenvalues --    0.51082   0.52049   0.53255   0.53415   0.55094
 Alpha virt. eigenvalues --    0.57304   0.60286   0.61977   0.63454   0.65876
 Alpha virt. eigenvalues --    0.68291   0.69467   0.70747   0.72784   0.73209
 Alpha virt. eigenvalues --    0.74636   0.76994   0.77019   0.77713   0.79090
 Alpha virt. eigenvalues --    0.79524   0.81425   0.81772   0.82630   0.83751
 Alpha virt. eigenvalues --    0.83802   0.85314   0.85826   0.88701   0.89806
 Alpha virt. eigenvalues --    0.91249   0.92616   0.92976   0.94853   0.95503
 Alpha virt. eigenvalues --    0.96581   0.97593   0.98377   0.99032   1.00313
 Alpha virt. eigenvalues --    1.00980   1.02077   1.02999   1.03696   1.04237
 Alpha virt. eigenvalues --    1.05436   1.06767   1.08393   1.09085   1.09714
 Alpha virt. eigenvalues --    1.09985   1.10661   1.12506   1.13560   1.13864
 Alpha virt. eigenvalues --    1.14244   1.15471   1.16340   1.17290   1.18287
 Alpha virt. eigenvalues --    1.19473   1.20942   1.23149   1.24576   1.25353
 Alpha virt. eigenvalues --    1.26222   1.28039   1.28439   1.30680   1.32315
 Alpha virt. eigenvalues --    1.34199   1.34755   1.36971   1.38445   1.39703
 Alpha virt. eigenvalues --    1.40731   1.42254   1.44836   1.46224   1.50209
 Alpha virt. eigenvalues --    1.51927   1.53307   1.55657   1.57971   1.58724
 Alpha virt. eigenvalues --    1.58971   1.61868   1.63426   1.64015   1.65897
 Alpha virt. eigenvalues --    1.65975   1.67377   1.68829   1.70458   1.70800
 Alpha virt. eigenvalues --    1.72353   1.72510   1.75137   1.76637   1.77992
 Alpha virt. eigenvalues --    1.81505   1.82037   1.86965   1.88629   1.88747
 Alpha virt. eigenvalues --    1.90366   1.92550   1.94070   1.95083   1.96228
 Alpha virt. eigenvalues --    1.97072   1.97876   1.98987   1.99260   2.01140
 Alpha virt. eigenvalues --    2.02297   2.05147   2.05726   2.06498   2.07448
 Alpha virt. eigenvalues --    2.08181   2.08741   2.14626   2.14981   2.15462
 Alpha virt. eigenvalues --    2.17804   2.19027   2.20402   2.22507   2.24609
 Alpha virt. eigenvalues --    2.28441   2.29894   2.30581   2.31400   2.33577
 Alpha virt. eigenvalues --    2.35883   2.39780   2.42043   2.42463   2.45561
 Alpha virt. eigenvalues --    2.46456   2.47686   2.49920   2.50277   2.51786
 Alpha virt. eigenvalues --    2.52246   2.53667   2.54640   2.56100   2.58642
 Alpha virt. eigenvalues --    2.59797   2.60377   2.61905   2.62653   2.65189
 Alpha virt. eigenvalues --    2.68789   2.69194   2.70495   2.71236   2.71563
 Alpha virt. eigenvalues --    2.72347   2.73159   2.74180   2.74912   2.77175
 Alpha virt. eigenvalues --    2.78985   2.80059   2.80538   2.82752   2.86045
 Alpha virt. eigenvalues --    2.86432   2.88246   2.89236   2.89516   2.90310
 Alpha virt. eigenvalues --    2.93995   2.95610   2.96745   2.99754   3.02659
 Alpha virt. eigenvalues --    3.05315   3.14591   3.17794   3.23810   3.37753
 Alpha virt. eigenvalues --    3.40559   3.42681   3.44715   3.46477   3.50183
 Alpha virt. eigenvalues --    3.52919   3.55172   3.56577   3.57142   3.61503
 Alpha virt. eigenvalues --    3.63116   3.63831   3.65600   3.91987   3.97872
 Alpha virt. eigenvalues --    3.98987   4.10780   4.22139   4.24106   4.29814
 Alpha virt. eigenvalues --    4.37486   4.38881   4.39875   4.41442   4.48683
 Alpha virt. eigenvalues --    4.53579   4.66120   4.79144   4.94895
  Beta  occ. eigenvalues --  -77.11832 -77.11237 -19.09361 -19.07670 -19.07607
  Beta  occ. eigenvalues --  -19.06731 -19.05994 -19.02455 -19.01297 -14.11278
  Beta  occ. eigenvalues --  -10.14934 -10.07125 -10.04041 -10.03093 -10.02802
  Beta  occ. eigenvalues --  -10.01429  -9.98904  -6.56863  -6.56144  -4.73310
  Beta  occ. eigenvalues --   -4.73176  -4.72928  -4.72566  -4.72472  -4.72257
  Beta  occ. eigenvalues --   -0.98445  -0.96986  -0.93438  -0.93005  -0.91928
  Beta  occ. eigenvalues --   -0.87193  -0.86041  -0.74193  -0.66832  -0.60584
  Beta  occ. eigenvalues --   -0.58291  -0.53855  -0.53409  -0.50147  -0.45256
  Beta  occ. eigenvalues --   -0.43967  -0.42859  -0.42493  -0.41256  -0.39617
  Beta  occ. eigenvalues --   -0.35941  -0.35063  -0.34274  -0.33284  -0.33060
  Beta  occ. eigenvalues --   -0.30854  -0.30653  -0.29218  -0.29005  -0.28033
  Beta  occ. eigenvalues --   -0.27201  -0.26496  -0.25832  -0.24644  -0.24407
  Beta  occ. eigenvalues --   -0.24209  -0.22593  -0.21762  -0.21083  -0.20447
  Beta  occ. eigenvalues --   -0.19785  -0.19505  -0.18878  -0.18241  -0.14909
  Beta  occ. eigenvalues --   -0.08281  -0.07702  -0.06225
  Beta virt. eigenvalues --    0.12975   0.15676   0.16401   0.16548   0.17400
  Beta virt. eigenvalues --    0.19127   0.21695   0.22738   0.23699   0.24505
  Beta virt. eigenvalues --    0.24786   0.25339   0.26549   0.26714   0.27668
  Beta virt. eigenvalues --    0.29357   0.31440   0.31947   0.32207   0.32669
  Beta virt. eigenvalues --    0.33932   0.34091   0.37199   0.37555   0.38549
  Beta virt. eigenvalues --    0.41741   0.42267   0.43398   0.47682   0.48088
  Beta virt. eigenvalues --    0.49789   0.51165   0.52145   0.53486   0.53586
  Beta virt. eigenvalues --    0.55202   0.57399   0.60377   0.62059   0.63794
  Beta virt. eigenvalues --    0.65950   0.68594   0.69540   0.71264   0.73002
  Beta virt. eigenvalues --    0.73553   0.75258   0.77292   0.77812   0.78317
  Beta virt. eigenvalues --    0.79271   0.79750   0.81740   0.82010   0.83195
  Beta virt. eigenvalues --    0.83915   0.84134   0.85596   0.86159   0.88910
  Beta virt. eigenvalues --    0.89977   0.91358   0.92955   0.93266   0.94940
  Beta virt. eigenvalues --    0.95629   0.96654   0.97828   0.98558   0.99204
  Beta virt. eigenvalues --    1.00434   1.01369   1.02251   1.03135   1.04207
  Beta virt. eigenvalues --    1.05006   1.05620   1.07004   1.08495   1.09270
  Beta virt. eigenvalues --    1.09832   1.10051   1.10833   1.12648   1.13624
  Beta virt. eigenvalues --    1.14247   1.14431   1.15679   1.16410   1.17354
  Beta virt. eigenvalues --    1.18396   1.19550   1.21104   1.23279   1.24692
  Beta virt. eigenvalues --    1.25439   1.26409   1.28251   1.28515   1.30778
  Beta virt. eigenvalues --    1.32490   1.34301   1.34909   1.37028   1.38533
  Beta virt. eigenvalues --    1.39854   1.40878   1.42689   1.45281   1.46410
  Beta virt. eigenvalues --    1.50421   1.52468   1.53586   1.55822   1.58387
  Beta virt. eigenvalues --    1.58878   1.59811   1.62505   1.63620   1.64282
  Beta virt. eigenvalues --    1.66016   1.66949   1.67457   1.68877   1.70535
  Beta virt. eigenvalues --    1.70881   1.72465   1.72587   1.75192   1.76702
  Beta virt. eigenvalues --    1.78124   1.81565   1.82167   1.87050   1.88702
  Beta virt. eigenvalues --    1.88925   1.90432   1.92984   1.94148   1.95247
  Beta virt. eigenvalues --    1.96285   1.97217   1.98069   1.99245   1.99419
  Beta virt. eigenvalues --    2.01253   2.02385   2.05366   2.05882   2.06719
  Beta virt. eigenvalues --    2.07555   2.08292   2.09125   2.14862   2.15376
  Beta virt. eigenvalues --    2.16018   2.17947   2.19104   2.20540   2.22688
  Beta virt. eigenvalues --    2.24939   2.29196   2.30109   2.31092   2.31580
  Beta virt. eigenvalues --    2.33750   2.36051   2.39945   2.42242   2.42651
  Beta virt. eigenvalues --    2.45755   2.46724   2.47871   2.50206   2.50855
  Beta virt. eigenvalues --    2.52380   2.52598   2.53865   2.55031   2.56519
  Beta virt. eigenvalues --    2.58869   2.59897   2.60544   2.61965   2.62774
  Beta virt. eigenvalues --    2.65785   2.69169   2.69601   2.70904   2.71482
  Beta virt. eigenvalues --    2.71748   2.72419   2.73279   2.74254   2.75007
  Beta virt. eigenvalues --    2.77236   2.79148   2.80261   2.80647   2.82862
  Beta virt. eigenvalues --    2.86510   2.87307   2.88687   2.89542   2.89701
  Beta virt. eigenvalues --    2.90497   2.94094   2.95672   2.97016   2.99819
  Beta virt. eigenvalues --    3.02755   3.05455   3.14661   3.18042   3.23977
  Beta virt. eigenvalues --    3.38101   3.40640   3.42787   3.44909   3.46633
  Beta virt. eigenvalues --    3.50227   3.53015   3.55248   3.56595   3.57330
  Beta virt. eigenvalues --    3.61555   3.63162   3.63888   3.65657   3.92040
  Beta virt. eigenvalues --    3.98149   3.99033   4.10810   4.22221   4.24145
  Beta virt. eigenvalues --    4.30428   4.37684   4.39225   4.40126   4.42024
  Beta virt. eigenvalues --    4.48954   4.53929   4.66281   4.79235   4.95326
     Alpha Molecular Orbital Coefficients:
                           1         2         3         4         5
                           O         O         O         O         O
     Eigenvalues --   -77.11848 -77.11243 -19.09435 -19.07688 -19.07610
   1 1   C  1S         -0.00003  -0.00002  -0.00002  -0.00001  -0.00001
   2        2S         -0.00000   0.00002  -0.00011  -0.00010  -0.00010
   3        2PX        -0.00003   0.00000  -0.00003  -0.00001  -0.00006
   4        2PY        -0.00002   0.00005  -0.00002   0.00003   0.00001
   5        2PZ         0.00001  -0.00001  -0.00001  -0.00001   0.00002
   6        3S          0.00075   0.00051   0.00045   0.00059   0.00077
   7        3PX        -0.00036   0.00017  -0.00035  -0.00033   0.00067
   8        3PY        -0.00027   0.00042   0.00023  -0.00053   0.00022
   9        3PZ         0.00014  -0.00006   0.00076   0.00011  -0.00028
  10        4XX        -0.00012  -0.00007   0.00004   0.00006  -0.00002
  11        4YY        -0.00007  -0.00013   0.00000  -0.00003   0.00003
  12        4ZZ        -0.00006  -0.00004  -0.00006   0.00002   0.00002
  13        4XY        -0.00002  -0.00001   0.00004   0.00002  -0.00001
  14        4XZ         0.00003   0.00000  -0.00002  -0.00003   0.00001
  15        4YZ         0.00001  -0.00002  -0.00002   0.00001   0.00001
  16 2   O  1S         -0.00000   0.00000  -0.00002   0.00002  -0.00002
  17        2S         -0.00000   0.00002  -0.00022   0.00004  -0.00001
  18        2PX         0.00001   0.00001   0.00002  -0.00002  -0.00002
  19        2PY        -0.00001  -0.00001   0.00001  -0.00000  -0.00002
  20        2PZ        -0.00001  -0.00001  -0.00002   0.00001   0.00001
  21        3S         -0.00012  -0.00020   0.00109  -0.00019  -0.00009
  22        3PX         0.00006  -0.00006  -0.00011   0.00010  -0.00000
  23        3PY         0.00007  -0.00005  -0.00002   0.00004   0.00013
  24        3PZ        -0.00009  -0.00014   0.00033  -0.00014  -0.00017
  25        4XX         0.00002  -0.00002  -0.00014   0.00003  -0.00003
  26        4YY        -0.00003   0.00003  -0.00016   0.00003   0.00004
  27        4ZZ        -0.00001   0.00000  -0.00011   0.00001  -0.00005
  28        4XY        -0.00001  -0.00001   0.00003   0.00001  -0.00001
  29        4XZ         0.00000  -0.00000  -0.00003   0.00002  -0.00001
  30        4YZ         0.00001  -0.00003   0.00001   0.00000  -0.00002
  31 3   H  1S         -0.00001  -0.00003  -0.00001   0.00002  -0.00002
  32        2S         -0.00018  -0.00018  -0.00001  -0.00018  -0.00002
  33        3PX         0.00003  -0.00001   0.00003  -0.00000  -0.00001
  34        3PY         0.00000  -0.00001  -0.00001   0.00000   0.00000
  35        3PZ        -0.00004  -0.00003   0.00000  -0.00001  -0.00002
  36 4   P  1S          0.99625   0.00033   0.00001   0.00001  -0.00000
  37        2S          0.01418  -0.00002  -0.00001   0.00002  -0.00003
  38        2PX         0.00001   0.00001  -0.00001  -0.00001   0.00000
  39        2PY        -0.00002  -0.00000   0.00006  -0.00001  -0.00001
  40        2PZ         0.00002  -0.00001  -0.00000  -0.00007   0.00000
  41        3S         -0.02722  -0.00005   0.00029   0.00052  -0.00025
  42        3PX        -0.00015  -0.00011   0.00015   0.00018  -0.00006
  43        3PY        -0.00003  -0.00001  -0.00017   0.00002   0.00005
  44        3PZ         0.00003   0.00005  -0.00002   0.00021  -0.00003
  45        4S          0.00276   0.00034  -0.00293  -0.00396   0.00140
  46        4PX         0.00013   0.00016  -0.00102  -0.00096   0.00037
  47        4PY         0.00018   0.00001   0.00215   0.00016   0.00071
  48        4PZ        -0.00012   0.00006  -0.00117  -0.00195  -0.00003
  49        5XX         0.00944  -0.00005  -0.00000  -0.00005   0.00005
  50        5YY         0.00946  -0.00001   0.00028  -0.00009   0.00004
  51        5ZZ         0.00948  -0.00001  -0.00010   0.00028   0.00006
  52        5XY        -0.00003  -0.00002   0.00003   0.00002   0.00000
  53        5XZ         0.00002   0.00001  -0.00001  -0.00001   0.00003
  54        5YZ        -0.00001  -0.00000   0.00004   0.00009  -0.00004
  55 5   P  1S         -0.00033   0.99625   0.00000  -0.00000   0.00001
  56        2S         -0.00003   0.01417   0.00001  -0.00005  -0.00002
  57        2PX         0.00000   0.00000  -0.00000   0.00000   0.00003
  58        2PY        -0.00001  -0.00001  -0.00000  -0.00000  -0.00002
  59        2PZ        -0.00000  -0.00003   0.00001  -0.00001   0.00006
  60        3S         -0.00004  -0.02727   0.00006  -0.00030   0.00027
  61        3PX        -0.00000   0.00001   0.00001  -0.00003  -0.00011
  62        3PY         0.00012   0.00019   0.00003   0.00007   0.00001
  63        3PZ         0.00001   0.00006  -0.00007   0.00006  -0.00024
  64        4S          0.00032   0.00305  -0.00060   0.00154  -0.00293
  65        4PX        -0.00009  -0.00001   0.00052  -0.00069   0.00080
  66        4PY        -0.00013  -0.00033   0.00027  -0.00054  -0.00018
  67        4PZ        -0.00007   0.00019  -0.00019   0.00018   0.00172
  68        5XX        -0.00002   0.00945   0.00002   0.00001   0.00005
  69        5YY        -0.00007   0.00943  -0.00001   0.00002   0.00001
  70        5ZZ        -0.00002   0.00951   0.00000   0.00008   0.00012
  71        5XY        -0.00001  -0.00001  -0.00001   0.00001  -0.00006
  72        5XZ        -0.00000  -0.00002  -0.00001  -0.00001   0.00020
  73        5YZ        -0.00001   0.00000   0.00002   0.00000  -0.00012
  74 6   O  1S         -0.00002   0.00000   0.99268  -0.00022  -0.00003
  75        2S         -0.00009   0.00001   0.02575  -0.00026  -0.00002
  76        2PX         0.00001   0.00000  -0.00044  -0.00001   0.00001
  77        2PY        -0.00010  -0.00001   0.00045   0.00002  -0.00000
  78        2PZ         0.00001   0.00000  -0.00074  -0.00001  -0.00001
  79        3S          0.00093  -0.00005   0.01295   0.00154   0.00010
  80        3PX        -0.00008  -0.00001   0.00043   0.00017  -0.00003
  81        3PY         0.00036  -0.00000   0.00047   0.00023  -0.00001
  82        3PZ        -0.00009  -0.00002   0.00038   0.00022   0.00004
  83        4XX        -0.00004  -0.00000  -0.00825  -0.00014  -0.00002
  84        4YY        -0.00029   0.00000  -0.00832  -0.00020  -0.00002
  85        4ZZ        -0.00001  -0.00000  -0.00826  -0.00026  -0.00003
  86        4XY        -0.00004   0.00000   0.00001   0.00001  -0.00000
  87        4XZ         0.00004  -0.00000  -0.00001  -0.00000  -0.00001
  88        4YZ         0.00000  -0.00000   0.00001  -0.00005  -0.00000
  89 7   H  1S         -0.00009  -0.00000   0.00040   0.00003  -0.00000
  90        2S         -0.00022   0.00000  -0.00090  -0.00009   0.00006
  91        3PX         0.00000  -0.00000  -0.00005   0.00004   0.00001
  92        3PY         0.00001  -0.00000  -0.00007  -0.00002   0.00000
  93        3PZ        -0.00001   0.00000  -0.00005   0.00003   0.00001
  94 8   O  1S         -0.00001   0.00002   0.00008   0.99265   0.00089
  95        2S         -0.00006   0.00007  -0.00028   0.02562   0.00016
  96        2PX        -0.00001   0.00001  -0.00004   0.00034   0.00000
  97        2PY         0.00000  -0.00000   0.00002   0.00059   0.00002
  98        2PZ         0.00010  -0.00002  -0.00003  -0.00051  -0.00003
  99        3S          0.00076  -0.00028   0.00174   0.01362  -0.00064
 100        3PX         0.00003  -0.00006   0.00019   0.00019  -0.00004
 101        3PY         0.00000   0.00001  -0.00036  -0.00014  -0.00009
 102        3PZ        -0.00035   0.00014  -0.00022  -0.00043   0.00019
 103        4XX        -0.00001   0.00005  -0.00016  -0.00833   0.00009
 104        4YY        -0.00000   0.00005  -0.00030  -0.00833   0.00008
 105        4ZZ        -0.00027   0.00003  -0.00020  -0.00841   0.00007
 106        4XY         0.00001  -0.00001  -0.00004  -0.00001  -0.00000
 107        4XZ         0.00003   0.00002  -0.00004  -0.00001   0.00000
 108        4YZ        -0.00003   0.00001  -0.00004   0.00000   0.00001
 109 9   H  1S         -0.00004   0.00001   0.00006   0.00037   0.00004
 110        2S         -0.00017  -0.00018   0.00005  -0.00136  -0.00010
 111        3PX         0.00000  -0.00001  -0.00004  -0.00000  -0.00001
 112        3PY        -0.00001  -0.00000  -0.00004   0.00005   0.00000
 113        3PZ        -0.00003   0.00002  -0.00000   0.00005   0.00000
 114 10  O  1S          0.00001  -0.00001   0.00001  -0.00083   0.99267
 115        2S          0.00007  -0.00006  -0.00005   0.00012   0.02571
 116        2PX         0.00001  -0.00004   0.00001  -0.00000  -0.00033
 117        2PY        -0.00002   0.00004  -0.00000  -0.00001  -0.00058
 118        2PZ         0.00001  -0.00008  -0.00001   0.00003   0.00055
 119        3S         -0.00027   0.00079   0.00032  -0.00071   0.01312
 120        3PX        -0.00005   0.00014  -0.00009   0.00000   0.00019
 121        3PY         0.00010  -0.00013  -0.00003   0.00013  -0.00021
 122        3PZ        -0.00009   0.00029   0.00007  -0.00020   0.00020
 123        4XX         0.00005  -0.00008  -0.00003   0.00011  -0.00828
 124        4YY         0.00003  -0.00007  -0.00004   0.00011  -0.00827
 125        4ZZ         0.00004  -0.00016  -0.00003   0.00009  -0.00831
 126        4XY        -0.00001   0.00008   0.00000  -0.00000   0.00002
 127        4XZ        -0.00000  -0.00012  -0.00001   0.00000  -0.00004
 128        4YZ         0.00002   0.00009   0.00000   0.00001   0.00003
 129 11  H  1S          0.00001  -0.00005  -0.00002   0.00004   0.00037
 130        2S         -0.00016  -0.00015  -0.00018  -0.00010  -0.00140
 131        3PX         0.00000   0.00002  -0.00002   0.00000  -0.00008
 132        3PY         0.00001  -0.00001  -0.00001   0.00001   0.00001
 133        3PZ        -0.00001   0.00001  -0.00000   0.00000  -0.00002
 134 12  O  1S         -0.00000  -0.00001  -0.00001   0.00006   0.00025
 135        2S         -0.00000  -0.00005   0.00004  -0.00003  -0.00016
 136        2PX         0.00000   0.00008  -0.00000   0.00000  -0.00004
 137        2PY        -0.00000   0.00003   0.00001  -0.00001   0.00001
 138        2PZ        -0.00000  -0.00006  -0.00000   0.00000   0.00001
 139        3S         -0.00000   0.00075  -0.00021   0.00016   0.00113
 140        3PX         0.00000  -0.00024   0.00006  -0.00001  -0.00013
 141        3PY         0.00001  -0.00008  -0.00003   0.00006  -0.00009
 142        3PZ         0.00001   0.00022   0.00002  -0.00002  -0.00011
 143        4XX        -0.00001  -0.00019   0.00003  -0.00004  -0.00026
 144        4YY        -0.00001  -0.00006   0.00003  -0.00003  -0.00009
 145        4ZZ        -0.00001  -0.00002   0.00003  -0.00003  -0.00016
 146        4XY         0.00000  -0.00010  -0.00000  -0.00000   0.00003
 147        4XZ        -0.00000   0.00011   0.00001  -0.00001  -0.00008
 148        4YZ        -0.00000   0.00003  -0.00000   0.00000   0.00004
 149 13  H  1S         -0.00000  -0.00008  -0.00000   0.00001   0.00007
 150        2S          0.00000  -0.00019  -0.00011   0.00004  -0.00017
 151        3PX         0.00000   0.00000   0.00001  -0.00001  -0.00002
 152        3PY         0.00000  -0.00001   0.00001   0.00000   0.00002
 153        3PZ        -0.00000  -0.00001   0.00001  -0.00001  -0.00006
 154 14  O  1S          0.00001   0.00002  -0.00002  -0.00000  -0.00003
 155        2S          0.00006   0.00001  -0.00010   0.00005   0.00002
 156        2PX        -0.00000  -0.00003   0.00001   0.00001   0.00004
 157        2PY        -0.00001   0.00002   0.00000   0.00001  -0.00003
 158        2PZ        -0.00001   0.00017   0.00001  -0.00004   0.00000
 159        3S         -0.00023   0.00024   0.00054  -0.00036  -0.00007
 160        3PX         0.00004   0.00004  -0.00005  -0.00014  -0.00018
 161        3PY         0.00007   0.00001  -0.00006  -0.00010   0.00013
 162        3PZ         0.00008  -0.00031  -0.00009   0.00032  -0.00026
 163        4XX         0.00003   0.00007  -0.00008   0.00005   0.00001
 164        4YY         0.00002   0.00008  -0.00007   0.00006   0.00003
 165        4ZZ         0.00002  -0.00015  -0.00006  -0.00001   0.00010
 166        4XY        -0.00001   0.00002  -0.00000   0.00004   0.00002
 167        4XZ        -0.00001   0.00007   0.00001  -0.00002   0.00000
 168        4YZ        -0.00001  -0.00007   0.00000  -0.00002  -0.00001
 169 15  O  1S          0.00001   0.00001  -0.00001  -0.00004  -0.00001
 170        2S         -0.00004   0.00006   0.00016   0.00001   0.00006
 171        2PX        -0.00010   0.00001   0.00000   0.00002   0.00002
 172        2PY         0.00010  -0.00000   0.00001  -0.00002  -0.00002
 173        2PZ        -0.00011   0.00001   0.00002  -0.00003   0.00002
 174        3S          0.00046  -0.00021  -0.00084  -0.00001  -0.00035
 175        3PX         0.00019  -0.00011   0.00003   0.00004  -0.00007
 176        3PY        -0.00022  -0.00001  -0.00015   0.00000   0.00025
 177        3PZ         0.00024  -0.00005  -0.00003   0.00035  -0.00022
 178        4XX        -0.00005   0.00001   0.00014   0.00003   0.00003
 179        4YY        -0.00001   0.00004   0.00014   0.00003   0.00008
 180        4ZZ        -0.00004   0.00003   0.00014   0.00007   0.00001
 181        4XY         0.00010  -0.00001  -0.00002   0.00001   0.00004
 182        4XZ        -0.00011  -0.00001  -0.00000   0.00003  -0.00003
 183        4YZ         0.00009  -0.00000  -0.00003  -0.00004   0.00000
 184 16  C  1S         -0.00000  -0.00001  -0.00001   0.00000   0.00002
 185        2S          0.00002  -0.00001  -0.00002   0.00003   0.00011
 186        2PX         0.00004   0.00001   0.00007   0.00008   0.00000
 187        2PY         0.00000  -0.00003   0.00000   0.00003   0.00002
 188        2PZ         0.00001   0.00003  -0.00001   0.00000   0.00002
 189        3S         -0.00035   0.00019  -0.00069  -0.00101  -0.00071
 190        3PX        -0.00007   0.00019  -0.00114  -0.00112  -0.00004
 191        3PY        -0.00021  -0.00021  -0.00038  -0.00024  -0.00043
 192        3PZ         0.00020  -0.00020  -0.00015   0.00031   0.00012
 193        4XX        -0.00005  -0.00002  -0.00003  -0.00004   0.00004
 194        4YY        -0.00001  -0.00006  -0.00001   0.00001   0.00004
 195        4ZZ        -0.00001  -0.00004  -0.00001   0.00002   0.00002
 196        4XY         0.00002   0.00001   0.00001  -0.00002   0.00000
 197        4XZ        -0.00001  -0.00001   0.00003  -0.00001  -0.00001
 198        4YZ        -0.00000   0.00001  -0.00000   0.00000   0.00003
 199 17  H  1S          0.00001  -0.00003   0.00000  -0.00005  -0.00002
 200        2S         -0.00022  -0.00009  -0.00018   0.00011  -0.00009
 201        3PX         0.00003  -0.00001   0.00001   0.00003  -0.00000
 202        3PY        -0.00002   0.00001  -0.00002   0.00000  -0.00001
 203        3PZ        -0.00001   0.00001  -0.00002  -0.00001  -0.00001
 204 18  H  1S          0.00000   0.00003  -0.00007  -0.00001   0.00005
 205        2S         -0.00021  -0.00005   0.00047  -0.00000  -0.00007
 206        3PX         0.00003   0.00000   0.00002   0.00001   0.00001
 207        3PY         0.00000  -0.00003   0.00001   0.00002   0.00002
 208        3PZ         0.00002   0.00001  -0.00003   0.00002   0.00001
 209 19  C  1S         -0.00001   0.00002  -0.00001  -0.00001   0.00001
 210        2S         -0.00002   0.00008  -0.00007  -0.00007   0.00002
 211        2PX         0.00002   0.00000   0.00002   0.00002  -0.00002
 212        2PY         0.00001  -0.00002   0.00001   0.00001  -0.00000
 213        2PZ         0.00001  -0.00004   0.00001   0.00001  -0.00001
 214        3S          0.00001  -0.00037   0.00076   0.00071  -0.00003
 215        3PX        -0.00046   0.00023  -0.00104  -0.00119  -0.00022
 216        3PY        -0.00012   0.00030  -0.00024  -0.00030   0.00015
 217        3PZ        -0.00015   0.00061   0.00015   0.00004   0.00034
 218        4XX         0.00001   0.00001   0.00003   0.00004   0.00002
 219        4YY        -0.00002   0.00002  -0.00003  -0.00002   0.00002
 220        4ZZ        -0.00002   0.00002  -0.00002  -0.00002   0.00001
 221        4XY        -0.00001   0.00003   0.00001   0.00001   0.00000
 222        4XZ        -0.00001   0.00002  -0.00001  -0.00001   0.00000
 223        4YZ        -0.00000   0.00001  -0.00000  -0.00000   0.00001
 224 20  C  1S         -0.00000   0.00000  -0.00000  -0.00000  -0.00001
 225        2S         -0.00000  -0.00002  -0.00001  -0.00002  -0.00003
 226        2PX         0.00000  -0.00002  -0.00000   0.00000   0.00000
 227        2PY         0.00000   0.00002  -0.00000  -0.00000  -0.00001
 228        2PZ        -0.00000   0.00001  -0.00000  -0.00000   0.00000
 229        3S          0.00002   0.00034   0.00028   0.00027   0.00044
 230        3PX         0.00010  -0.00022   0.00024   0.00022  -0.00009
 231        3PY         0.00005  -0.00002   0.00016   0.00016   0.00010
 232        3PZ         0.00010   0.00022   0.00018   0.00019   0.00022
 233        4XX        -0.00001   0.00004  -0.00001  -0.00002  -0.00000
 234        4YY        -0.00000   0.00002  -0.00000  -0.00001  -0.00001
 235        4ZZ         0.00001   0.00002   0.00001   0.00000  -0.00001
 236        4XY        -0.00000   0.00000   0.00000   0.00000   0.00000
 237        4XZ         0.00000  -0.00001   0.00001   0.00001  -0.00000
 238        4YZ         0.00000   0.00000   0.00001   0.00001   0.00000
 239 21  C  1S         -0.00000   0.00001  -0.00000  -0.00000   0.00000
 240        2S         -0.00002   0.00004  -0.00002  -0.00002   0.00001
 241        2PX        -0.00000  -0.00000   0.00000  -0.00001  -0.00001
 242        2PY        -0.00000   0.00001  -0.00001   0.00000   0.00001
 243        2PZ        -0.00000   0.00001  -0.00000  -0.00000   0.00000
 244        3S          0.00025  -0.00044   0.00036   0.00040  -0.00009
 245        3PX        -0.00002   0.00023   0.00019   0.00022   0.00018
 246        3PY        -0.00014   0.00013  -0.00002  -0.00012   0.00002
 247        3PZ        -0.00019   0.00021  -0.00020  -0.00030   0.00006
 248        4XX        -0.00001   0.00000  -0.00000  -0.00000   0.00000
 249        4YY         0.00000   0.00001  -0.00001   0.00000   0.00000
 250        4ZZ         0.00000   0.00001   0.00001   0.00002   0.00000
 251        4XY         0.00000  -0.00000   0.00000   0.00000  -0.00000
 252        4XZ         0.00000  -0.00001  -0.00001  -0.00001  -0.00001
 253        4YZ         0.00001  -0.00001   0.00001   0.00001  -0.00000
 254 22  C  1S         -0.00000  -0.00000  -0.00000  -0.00000   0.00000
 255        2S         -0.00001   0.00000  -0.00000  -0.00001   0.00001
 256        2PX         0.00000   0.00001   0.00001   0.00001   0.00001
 257        2PY         0.00000  -0.00000   0.00000  -0.00000   0.00000
 258        2PZ        -0.00000   0.00000  -0.00001  -0.00001   0.00000
 259        3S         -0.00003   0.00002  -0.00023  -0.00019  -0.00012
 260        3PX         0.00000  -0.00007   0.00007   0.00004   0.00001
 261        3PY         0.00001  -0.00004   0.00001   0.00001  -0.00006
 262        3PZ        -0.00000  -0.00011  -0.00003  -0.00001  -0.00012
 263        4XX         0.00000  -0.00001   0.00000   0.00000  -0.00000
 264        4YY        -0.00000  -0.00000  -0.00000  -0.00001   0.00000
 265        4ZZ        -0.00000  -0.00000  -0.00000  -0.00000  -0.00000
 266        4XY         0.00000  -0.00001   0.00000   0.00000   0.00000
 267        4XZ        -0.00000   0.00000  -0.00000  -0.00000   0.00000
 268        4YZ         0.00000   0.00000   0.00000   0.00000  -0.00000
 269 23  H  1S          0.00000  -0.00001   0.00001   0.00001  -0.00001
 270        2S          0.00008  -0.00000   0.00014   0.00011   0.00004
 271        3PX         0.00000   0.00000  -0.00000  -0.00000   0.00001
 272        3PY         0.00000   0.00000   0.00000  -0.00000  -0.00000
 273        3PZ         0.00000  -0.00001   0.00000  -0.00000  -0.00000
 274 24  N  1S         -0.00000  -0.00000   0.00000   0.00000   0.00000
 275        2S         -0.00000  -0.00001   0.00001   0.00001   0.00001
 276        2PX         0.00000   0.00000   0.00000   0.00001   0.00000
 277        2PY        -0.00000  -0.00000   0.00000  -0.00000  -0.00001
 278        2PZ        -0.00000   0.00001   0.00000   0.00000   0.00001
 279        3S         -0.00002  -0.00000  -0.00023  -0.00024  -0.00011
 280        3PX        -0.00003   0.00002   0.00008   0.00005   0.00002
 281        3PY         0.00002   0.00002   0.00003   0.00005   0.00004
 282        3PZ         0.00004  -0.00007   0.00001   0.00003  -0.00002
 283        4XX         0.00000  -0.00001   0.00000   0.00001   0.00000
 284        4YY        -0.00000  -0.00001   0.00000   0.00000  -0.00001
 285        4ZZ        -0.00000  -0.00001   0.00001   0.00001  -0.00000
 286        4XY         0.00000  -0.00000   0.00000  -0.00000  -0.00000
 287        4XZ        -0.00000   0.00000  -0.00000  -0.00000   0.00000
 288        4YZ        -0.00000   0.00000   0.00000   0.00000   0.00000
 289 25  H  1S         -0.00000   0.00003   0.00001   0.00002   0.00003
 290        2S          0.00010  -0.00010   0.00005   0.00014  -0.00007
 291        3PX         0.00000  -0.00001  -0.00000  -0.00000  -0.00001
 292        3PY         0.00000  -0.00000   0.00000   0.00000  -0.00000
 293        3PZ        -0.00000   0.00001   0.00000  -0.00000   0.00001
 294 26  C  1S          0.00000  -0.00000  -0.00000  -0.00000  -0.00000
 295        2S          0.00000  -0.00001  -0.00001  -0.00000  -0.00001
 296        2PX        -0.00000   0.00001   0.00001   0.00000   0.00000
 297        2PY         0.00000  -0.00000   0.00000   0.00000  -0.00000
 298        2PZ         0.00000  -0.00000   0.00000   0.00000  -0.00000
 299        3S          0.00003   0.00006   0.00006   0.00006   0.00013
 300        3PX         0.00000  -0.00003  -0.00007  -0.00005  -0.00006
 301        3PY         0.00000  -0.00005  -0.00003  -0.00002  -0.00004
 302        3PZ         0.00002  -0.00005  -0.00000   0.00000  -0.00002
 303        4XX         0.00000  -0.00001  -0.00000   0.00000  -0.00000
 304        4YY         0.00000  -0.00001  -0.00000  -0.00000  -0.00001
 305        4ZZ         0.00000  -0.00000  -0.00000   0.00000   0.00000
 306        4XY         0.00000   0.00000   0.00000   0.00000   0.00000
 307        4XZ        -0.00000   0.00000  -0.00000  -0.00000   0.00000
 308        4YZ         0.00000   0.00000   0.00000   0.00000   0.00000
 309 27  H  1S          0.00000  -0.00001   0.00000   0.00000  -0.00001
 310        2S          0.00001  -0.00002   0.00001   0.00002  -0.00003
 311        3PX        -0.00000   0.00000  -0.00000  -0.00000   0.00000
 312        3PY        -0.00000  -0.00000  -0.00000   0.00000   0.00000
 313        3PZ         0.00000   0.00000   0.00000   0.00000   0.00000
 314 28  H  1S         -0.00000   0.00000   0.00000   0.00000   0.00000
 315        2S         -0.00000   0.00001   0.00003   0.00002   0.00002
 316        3PX        -0.00000  -0.00000  -0.00000  -0.00000  -0.00000
 317        3PY         0.00000   0.00000  -0.00000   0.00000   0.00000
 318        3PZ        -0.00000   0.00000   0.00000   0.00000   0.00000
                           6         7         8         9        10
                           O         O         O         O         O
     Eigenvalues --   -19.06808 -19.05999 -19.02469 -19.01319 -14.11929
   1 1   C  1S         -0.00003  -0.00001  -0.00001  -0.00000  -0.00000
   2        2S         -0.00017   0.00016  -0.00009  -0.00007  -0.00001
   3        2PX         0.00000   0.00010  -0.00002  -0.00003  -0.00000
   4        2PY         0.00001  -0.00012   0.00004   0.00001  -0.00000
   5        2PZ         0.00007  -0.00030   0.00002  -0.00003  -0.00000
   6        3S          0.00086  -0.00123   0.00065   0.00036   0.00007
   7        3PX        -0.00003  -0.00062  -0.00016   0.00007   0.00003
   8        3PY         0.00041   0.00057  -0.00049   0.00055  -0.00001
   9        3PZ        -0.00048   0.00115   0.00005   0.00007  -0.00001
  10        4XX        -0.00002   0.00004   0.00005  -0.00002  -0.00000
  11        4YY         0.00002   0.00004  -0.00000   0.00006   0.00000
  12        4ZZ        -0.00003   0.00020   0.00002   0.00003  -0.00000
  13        4XY         0.00003   0.00001  -0.00002   0.00000  -0.00000
  14        4XZ        -0.00000  -0.00003  -0.00001  -0.00001   0.00000
  15        4YZ        -0.00000   0.00007  -0.00002   0.00003   0.00000
  16 2   O  1S         -0.00001   0.99273  -0.00002   0.00001   0.00000
  17        2S         -0.00004   0.02579  -0.00007   0.00006   0.00001
  18        2PX        -0.00002  -0.00064   0.00003   0.00001   0.00000
  19        2PY        -0.00004   0.00085   0.00001   0.00003   0.00000
  20        2PZ        -0.00002   0.00018  -0.00001   0.00002   0.00000
  21        3S         -0.00012   0.01251   0.00019  -0.00015  -0.00004
  22        3PX         0.00012   0.00002  -0.00017  -0.00005  -0.00000
  23        3PY         0.00007   0.00008   0.00002  -0.00013  -0.00000
  24        3PZ         0.00004   0.00060  -0.00002  -0.00012  -0.00002
  25        4XX        -0.00006  -0.00811  -0.00001   0.00005   0.00001
  26        4YY        -0.00002  -0.00812  -0.00007   0.00004   0.00001
  27        4ZZ        -0.00005  -0.00817  -0.00007   0.00003   0.00000
  28        4XY         0.00003  -0.00003  -0.00001   0.00000  -0.00000
  29        4XZ        -0.00000   0.00005  -0.00001  -0.00000  -0.00000
  30        4YZ         0.00001  -0.00007   0.00001  -0.00003  -0.00000
  31 3   H  1S         -0.00004   0.00030  -0.00002   0.00004  -0.00000
  32        2S          0.00039  -0.00123   0.00007  -0.00023  -0.00000
  33        3PX         0.00002  -0.00008  -0.00002  -0.00001  -0.00000
  34        3PY        -0.00000   0.00009   0.00001   0.00001   0.00000
  35        3PZ         0.00003  -0.00015   0.00001  -0.00002  -0.00000
  36 4   P  1S          0.00000   0.00000   0.00001  -0.00000  -0.00000
  37        2S          0.00005   0.00004  -0.00007  -0.00004  -0.00000
  38        2PX        -0.00001  -0.00001  -0.00000  -0.00000   0.00000
  39        2PY         0.00000   0.00000  -0.00000  -0.00000  -0.00000
  40        2PZ        -0.00000  -0.00000   0.00001  -0.00001  -0.00000
  41        3S          0.00020   0.00029   0.00074  -0.00032  -0.00001
  42        3PX         0.00008   0.00014  -0.00006  -0.00000  -0.00001
  43        3PY        -0.00001  -0.00000   0.00010   0.00001  -0.00000
  44        3PZ         0.00002  -0.00001  -0.00017   0.00009   0.00000
  45        4S         -0.00105  -0.00125  -0.00296   0.00119   0.00007
  46        4PX        -0.00034  -0.00051   0.00083   0.00032   0.00003
  47        4PY        -0.00065   0.00030  -0.00169   0.00064   0.00001
  48        4PZ         0.00001   0.00020   0.00160   0.00007   0.00002
  49        5XX         0.00004   0.00001  -0.00016   0.00001  -0.00000
  50        5YY         0.00003  -0.00004  -0.00022   0.00004  -0.00000
  51        5ZZ         0.00001  -0.00003  -0.00019   0.00006  -0.00000
  52        5XY        -0.00001  -0.00003  -0.00005   0.00003   0.00000
  53        5XZ         0.00001  -0.00002   0.00008   0.00000  -0.00000
  54        5YZ         0.00001   0.00002  -0.00008   0.00001  -0.00000
  55 5   P  1S          0.00001   0.00000  -0.00000   0.00002  -0.00000
  56        2S         -0.00005   0.00002  -0.00004  -0.00004   0.00000
  57        2PX        -0.00005  -0.00001   0.00001  -0.00001   0.00000
  58        2PY        -0.00002   0.00000   0.00000   0.00001   0.00000
  59        2PZ         0.00003  -0.00000   0.00001  -0.00001   0.00000
  60        3S          0.00014   0.00013  -0.00028   0.00094   0.00000
  61        3PX         0.00016   0.00004  -0.00005   0.00001  -0.00000
  62        3PY         0.00003  -0.00009  -0.00001  -0.00012  -0.00000
  63        3PZ        -0.00014   0.00000  -0.00007   0.00021  -0.00000
  64        4S         -0.00215  -0.00053   0.00115  -0.00385  -0.00001
  65        4PX        -0.00161  -0.00003  -0.00069   0.00084   0.00005
  66        4PY        -0.00043   0.00026  -0.00038   0.00058   0.00003
  67        4PZ         0.00193   0.00007   0.00008  -0.00214   0.00001
  68        5XX         0.00020   0.00002   0.00005  -0.00026   0.00000
  69        5YY        -0.00004   0.00002   0.00003  -0.00023  -0.00000
  70        5ZZ        -0.00007  -0.00003   0.00004  -0.00009  -0.00000
  71        5XY         0.00011  -0.00004   0.00003  -0.00004   0.00000
  72        5XZ        -0.00013  -0.00000   0.00004  -0.00004  -0.00001
  73        5YZ        -0.00005   0.00002  -0.00001   0.00006  -0.00000
  74 6   O  1S          0.00002  -0.00007   0.00008  -0.00002   0.00000
  75        2S          0.00002  -0.00018   0.00008  -0.00004   0.00000
  76        2PX        -0.00001  -0.00003   0.00001   0.00000   0.00000
  77        2PY        -0.00000  -0.00002  -0.00001  -0.00001   0.00000
  78        2PZ         0.00001   0.00001   0.00004  -0.00000   0.00000
  79        3S         -0.00012   0.00082  -0.00038   0.00017  -0.00002
  80        3PX         0.00003   0.00020  -0.00014  -0.00001  -0.00000
  81        3PY         0.00000   0.00022   0.00016   0.00002  -0.00000
  82        3PZ        -0.00005   0.00002  -0.00028   0.00003  -0.00000
  83        4XX         0.00002  -0.00013   0.00008  -0.00003   0.00000
  84        4YY         0.00002  -0.00011   0.00011  -0.00004   0.00000
  85        4ZZ         0.00002  -0.00014   0.00010  -0.00004   0.00000
  86        4XY         0.00001   0.00001   0.00001  -0.00000  -0.00000
  87        4XZ         0.00000  -0.00003  -0.00001  -0.00001   0.00000
  88        4YZ        -0.00000  -0.00002   0.00000  -0.00000  -0.00000
  89 7   H  1S         -0.00000   0.00002  -0.00008   0.00000  -0.00000
  90        2S         -0.00008   0.00012   0.00019   0.00008   0.00000
  91        3PX        -0.00001   0.00002  -0.00002   0.00001  -0.00000
  92        3PY        -0.00001   0.00001   0.00003   0.00000   0.00000
  93        3PZ        -0.00000   0.00003  -0.00003   0.00001  -0.00000
  94 8   O  1S         -0.00009  -0.00001   0.00005   0.00000   0.00000
  95        2S         -0.00009  -0.00001  -0.00000  -0.00008   0.00001
  96        2PX         0.00000  -0.00000   0.00004  -0.00001  -0.00000
  97        2PY        -0.00001   0.00001  -0.00005  -0.00004  -0.00000
  98        2PZ         0.00001  -0.00001   0.00001  -0.00005  -0.00000
  99        3S          0.00050   0.00010  -0.00001   0.00038  -0.00004
 100        3PX         0.00002   0.00003  -0.00019   0.00014  -0.00000
 101        3PY         0.00010  -0.00009   0.00031   0.00026   0.00000
 102        3PZ        -0.00009  -0.00002  -0.00024   0.00027   0.00001
 103        4XX        -0.00006  -0.00000   0.00001  -0.00003   0.00000
 104        4YY        -0.00005   0.00001   0.00002  -0.00002   0.00000
 105        4ZZ        -0.00006   0.00000   0.00007  -0.00009   0.00000
 106        4XY        -0.00000  -0.00001   0.00003   0.00003   0.00000
 107        4XZ         0.00001   0.00001   0.00002   0.00000   0.00000
 108        4YZ        -0.00000   0.00001  -0.00001  -0.00000   0.00000
 109 9   H  1S         -0.00003   0.00003  -0.00008  -0.00008  -0.00000
 110        2S         -0.00013   0.00002   0.00009  -0.00089   0.00000
 111        3PX         0.00001  -0.00000   0.00001  -0.00009  -0.00000
 112        3PY         0.00002   0.00000   0.00001  -0.00007   0.00000
 113        3PZ         0.00001  -0.00001  -0.00001   0.00006  -0.00000
 114 10  O  1S         -0.00036  -0.00000   0.00001   0.00003  -0.00000
 115        2S         -0.00020  -0.00009  -0.00008  -0.00006  -0.00001
 116        2PX         0.00001  -0.00001   0.00006   0.00003  -0.00000
 117        2PY         0.00000   0.00003  -0.00001  -0.00001   0.00000
 118        2PZ         0.00004   0.00002   0.00003  -0.00005  -0.00000
 119        3S          0.00131   0.00035   0.00037   0.00027   0.00002
 120        3PX         0.00026   0.00009  -0.00036  -0.00009   0.00001
 121        3PY        -0.00007  -0.00018  -0.00006  -0.00005  -0.00001
 122        3PZ        -0.00007  -0.00004  -0.00015   0.00043   0.00001
 123        4XX        -0.00029  -0.00007  -0.00003  -0.00001  -0.00000
 124        4YY        -0.00010  -0.00003  -0.00002  -0.00002  -0.00000
 125        4ZZ        -0.00014  -0.00007  -0.00007   0.00003  -0.00000
 126        4XY        -0.00005  -0.00002   0.00004   0.00001  -0.00000
 127        4XZ        -0.00002   0.00000  -0.00001   0.00003   0.00000
 128        4YZ         0.00001   0.00001   0.00001  -0.00002  -0.00000
 129 11  H  1S          0.00008  -0.00005  -0.00009  -0.00009  -0.00000
 130        2S         -0.00008   0.00014  -0.00089   0.00017   0.00001
 131        3PX         0.00005   0.00003   0.00003  -0.00000   0.00000
 132        3PY         0.00004   0.00001   0.00012  -0.00001   0.00000
 133        3PZ        -0.00001   0.00000  -0.00002   0.00002   0.00000
 134 12  O  1S          0.99266  -0.00001  -0.00003   0.00007  -0.00001
 135        2S          0.02572  -0.00006  -0.00004   0.00001  -0.00003
 136        2PX         0.00000   0.00001   0.00001  -0.00000  -0.00001
 137        2PY        -0.00032   0.00002  -0.00001  -0.00000  -0.00000
 138        2PZ         0.00085   0.00000  -0.00000  -0.00005  -0.00000
 139        3S          0.01321   0.00024   0.00020  -0.00005   0.00016
 140        3PX        -0.00042  -0.00005  -0.00007  -0.00009   0.00007
 141        3PY        -0.00022  -0.00010   0.00003  -0.00006  -0.00001
 142        3PZ        -0.00014  -0.00001  -0.00001   0.00038   0.00005
 143        4XX        -0.00835  -0.00004  -0.00005   0.00009  -0.00001
 144        4YY        -0.00830  -0.00002  -0.00003   0.00004  -0.00003
 145        4ZZ        -0.00832  -0.00004  -0.00004   0.00004  -0.00002
 146        4XY        -0.00001   0.00001   0.00000   0.00000  -0.00000
 147        4XZ         0.00004   0.00001  -0.00001  -0.00001   0.00002
 148        4YZ         0.00001   0.00001   0.00000  -0.00003  -0.00000
 149 13  H  1S          0.00041  -0.00001   0.00001  -0.00009  -0.00000
 150        2S         -0.00120   0.00003   0.00012   0.00016  -0.00019
 151        3PX         0.00009  -0.00000  -0.00001  -0.00001   0.00002
 152        3PY         0.00003   0.00001  -0.00000  -0.00001   0.00000
 153        3PZ         0.00004  -0.00000  -0.00001   0.00004   0.00002
 154 14  O  1S         -0.00002   0.00000  -0.00004   0.99268   0.00000
 155        2S          0.00015   0.00000   0.00007   0.02549   0.00000
 156        2PX        -0.00002  -0.00000   0.00001   0.00016   0.00000
 157        2PY        -0.00001  -0.00000   0.00000  -0.00013   0.00000
[...]
 237         V                 2.310920          3.354391
 238         V                 2.315796          3.517757
 239         V                 2.337499          3.496741
 240         V                 2.360506          3.450297
 241         V                 2.399449          3.578681
 242         V                 2.422421          3.447207
 243         V                 2.426507          3.696157
 244         V                 2.457555          3.685821
 245         V                 2.467239          3.597819
 246         V                 2.478709          3.738458
 247         V                 2.502061          3.831985
 248         V                 2.508555          3.518685
 249         V                 2.523802          3.732693
 250         V                 2.525977          3.646417
 251         V                 2.538648          3.788364
 252         V                 2.550311          3.736091
 253         V                 2.565193          3.391739
 254         V                 2.588691          3.993251
 255         V                 2.598965          3.881700
 256         V                 2.605436          3.950809
 257         V                 2.619654          4.425296
 258         V                 2.627736          4.110522
 259         V                 2.657852          3.901175
 260         V                 2.691688          3.945014
 261         V                 2.696014          3.592406
 262         V                 2.709038          3.597035
 263         V                 2.714822          3.653471
 264         V                 2.717482          3.598576
 265         V                 2.724187          3.606991
 266         V                 2.732786          4.150368
 267         V                 2.742537          3.829014
 268         V                 2.750066          3.860685
 269         V                 2.772360          3.839909
 270         V                 2.791480          4.088650
 271         V                 2.802613          4.010723
 272         V                 2.806471          3.976621
 273         V                 2.828618          4.202929
 274         V                 2.865099          3.992784
 275         V                 2.873068          3.963488
 276         V                 2.886866          3.975631
 277         V                 2.895416          4.106093
 278         V                 2.897011          4.167246
 279         V                 2.904968          4.318454
 280         V                 2.940941          4.344546
 281         V                 2.956719          4.755463
 282         V                 2.970157          4.411414
 283         V                 2.998192          4.234442
 284         V                 3.027553          4.254440
 285         V                 3.054554          4.249871
 286         V                 3.146608          4.725793
 287         V                 3.180423          4.536162
 288         V                 3.239767          4.653749
 289         V                 3.381009          5.074795
 290         V                 3.406403          4.956817
 291         V                 3.427869          5.178199
 292         V                 3.449085          6.238746
 293         V                 3.466326          5.105843
 294         V                 3.502273          6.094195
 295         V                 3.530151          6.815647
 296         V                 3.552481          5.765061
 297         V                 3.565947          5.900008
 298         V                 3.573298          5.249305
 299         V                 3.615545          5.436645
 300         V                 3.631617          5.694391
 301         V                 3.638876          9.759597
 302         V                 3.656570          9.604583
 303         V                 3.920400          9.239333
 304         V                 3.981486          6.150433
 305         V                 3.990332          9.881743
 306         V                 4.108103         10.713661
 307         V                 4.222211         10.155268
 308         V                 4.241445         10.884607
 309         V                 4.304278         10.100433
 310         V                 4.376843         10.575520
 311         V                 4.392250         10.468186
 312         V                 4.401256         10.536709
 313         V                 4.420237         10.338696
 314         V                 4.489540         10.566699
 315         V                 4.539294         10.138122
 316         V                 4.662806         10.141305
 317         V                 4.792348         10.493945
 318         V                 4.953257         10.187615
 Total kinetic energy from orbitals= 1.527725973180D+03
                          Isotropic Fermi Contact Couplings
        Atom                 a.u.       MegaHertz       Gauss      10(-4) cm-1
     1  C(13)              0.04029      45.29416      16.16208      15.10851
     2  O(17)             -0.00031       0.18638       0.06651       0.06217
     3  H(1)              -0.00003      -0.13839      -0.04938      -0.04616
     4  P(31)              0.09465     171.41517      61.16520      57.17795
     5  P(31)              0.02516      45.57301      16.26158      15.20152
     6  O(17)              0.11031     -66.87208     -23.86162     -22.30612
     7  H(1)               0.00212       9.49506       3.38807       3.16721
     8  O(17)              0.03036     -18.40322      -6.56673      -6.13865
     9  H(1)               0.00104       4.63923       1.65539       1.54748
    10  O(17)              0.00962      -5.83017      -2.08035      -1.94474
    11  H(1)               0.00080       3.59743       1.28365       1.19997
    12  O(17)              0.06873     -41.66299     -14.86639     -13.89728
    13  H(1)               0.00012       0.53784       0.19192       0.17941
    14  O(17)              0.02433     -14.74818      -5.26252      -4.91946
    15  O(17)              0.01582      -9.59224      -3.42275      -3.19963
    16  C(13)              0.00491       5.51445       1.96769       1.83942
    17  H(1)               0.00111       4.96190       1.77053       1.65511
    18  H(1)              -0.00023      -1.04750      -0.37378      -0.34941
    19  C(13)             -0.00904     -10.16099      -3.62569      -3.38934
    20  C(13)              0.04438      49.88957      17.80184      16.64137
    21  C(13)             -0.00069      -0.77411      -0.27622      -0.25821
    22  C(13)             -0.00920     -10.34747      -3.69223      -3.45154
    23  H(1)              -0.00701     -31.33093     -11.17966     -10.45087
    24  N(14)              0.05314      17.17024       6.12677       5.72737
    25  H(1)              -0.00120      -5.37199      -1.91686      -1.79190
    26  C(13)              0.00584       6.57003       2.34435       2.19153
    27  H(1)              -0.00053      -2.35050      -0.83872      -0.78404
    28  H(1)              -0.00247     -11.01878      -3.93177      -3.67547
 --------------------------------------------------------
       Center         ----  Spin Dipole Couplings  ----
                      3XX-RR        3YY-RR        3ZZ-RR
 --------------------------------------------------------
     1   Atom       -0.002396     -0.002998      0.005394
     2   Atom        0.010854     -0.005772     -0.005082
     3   Atom        0.001385     -0.001075     -0.000309
     4   Atom        0.003073      0.007513     -0.010586
     5   Atom        0.023819     -0.010754     -0.013065
     6   Atom       -0.019255      0.010760      0.008495
     7   Atom        0.000972     -0.001015      0.000043
     8   Atom       -0.000273     -0.005884      0.006157
     9   Atom        0.000688     -0.000275     -0.000413
    10   Atom       -0.000513     -0.000236      0.000749
    11   Atom        0.000931     -0.000244     -0.000687
    12   Atom       -0.034267      0.003664      0.030603
    13   Atom        0.002971      0.000222     -0.003192
    14   Atom        0.019184     -0.009466     -0.009718
    15   Atom       -0.003913      0.009808     -0.005895
    16   Atom        0.004639     -0.001482     -0.003157
    17   Atom        0.003921     -0.001167     -0.002754
    18   Atom        0.002738     -0.001322     -0.001416
    19   Atom       -0.002314     -0.002848      0.005163
    20   Atom       -0.173973      0.264192     -0.090219
    21   Atom       -0.008281      0.022124     -0.013843
    22   Atom       -0.001020      0.008879     -0.007858
    23   Atom       -0.017250      0.012084      0.005166
    24   Atom       -0.270940      0.428148     -0.157207
    25   Atom       -0.000115     -0.002653      0.002768
    26   Atom       -0.050167      0.070367     -0.020200
    27   Atom       -0.000542     -0.003298      0.003841
    28   Atom        0.012398     -0.003637     -0.008761
 --------------------------------------------------------
                        XY            XZ            YZ
 --------------------------------------------------------
     1   Atom       -0.002933     -0.001664      0.002413
     2   Atom        0.004447      0.006228      0.001048
     3   Atom       -0.000449      0.001486     -0.000573
     4   Atom       -0.021743     -0.004915      0.004587
     5   Atom       -0.004363      0.003094     -0.001859
     6   Atom       -0.005771     -0.003772     -0.032204
     7   Atom        0.002794      0.003424      0.002591
     8   Atom       -0.000438     -0.005578     -0.001956
     9   Atom        0.000096     -0.000728      0.000945
    10   Atom       -0.001591     -0.000037     -0.000222
    11   Atom       -0.000602      0.000687     -0.000268
    12   Atom        0.005316     -0.013475     -0.049347
    13   Atom       -0.003140      0.005396     -0.002326
    14   Atom       -0.006978     -0.002253      0.002834
    15   Atom       -0.007652      0.002146     -0.002877
    16   Atom        0.000273     -0.000431      0.000104
    17   Atom        0.003134     -0.001386     -0.000106
    18   Atom        0.001116     -0.002546     -0.000792
    19   Atom       -0.005639     -0.001577     -0.000584
    20   Atom       -0.163872      0.092721     -0.256692
    21   Atom       -0.000205      0.002931     -0.023878
    22   Atom       -0.003964      0.007306     -0.010984
    23   Atom        0.008422      0.025061      0.011691
    24   Atom       -0.263639      0.133646     -0.397903
    25   Atom       -0.002990     -0.004961      0.002547
    26   Atom       -0.049168      0.019120     -0.065250
    27   Atom       -0.001021     -0.004211      0.002937
    28   Atom        0.004907     -0.001138     -0.002910
 --------------------------------------------------------


 ---------------------------------------------------------------------------------
              Anisotropic Spin Dipole Couplings in Principal Axis System
 ---------------------------------------------------------------------------------

       Atom             a.u.   MegaHertz   Gauss  10(-4) cm-1        Axes

              Baa    -0.0057    -0.764    -0.273    -0.255  0.6433  0.7624 -0.0693
     1 C(13)  Bbb    -0.0010    -0.134    -0.048    -0.045  0.7177 -0.5691  0.4014
              Bcc     0.0067     0.898     0.321     0.300 -0.2666  0.3080  0.9133
 
              Baa    -0.0075     0.544     0.194     0.181 -0.3846  0.5252  0.7591
     2 O(17)  Bbb    -0.0065     0.473     0.169     0.158 -0.0055  0.8210 -0.5709
              Bcc     0.0140    -1.016    -0.363    -0.339  0.9231  0.2237  0.3129
 
              Baa    -0.0015    -0.777    -0.277    -0.259 -0.2306  0.7175  0.6573
     3 H(1)   Bbb    -0.0009    -0.494    -0.176    -0.165  0.4895  0.6693 -0.5589
              Bcc     0.0024     1.271     0.453     0.424  0.8409 -0.1929  0.5056
 
              Baa    -0.0166    -3.595    -1.283    -1.199  0.7489  0.6529  0.1135
     4 P(31)  Bbb    -0.0117    -2.524    -0.901    -0.842  0.0280 -0.2023  0.9789
              Bcc     0.0283     6.119     2.183     2.041 -0.6621  0.7299  0.1698
 
              Baa    -0.0141    -3.050    -1.088    -1.017 -0.0186  0.4660  0.8846
     5 P(31)  Bbb    -0.0105    -2.279    -0.813    -0.760  0.1524  0.8757 -0.4582
              Bcc     0.0247     5.329     1.902     1.778  0.9881 -0.1263  0.0873
 
              Baa    -0.0279     2.016     0.719     0.673  0.6168  0.5564  0.5568
     6 O(17)  Bbb    -0.0140     1.015     0.362     0.339  0.7867 -0.4130 -0.4589
              Bcc     0.0419    -3.031    -1.082    -1.011 -0.0253  0.7210 -0.6924
 
              Baa    -0.0031    -1.670    -0.596    -0.557  0.0033  0.7729 -0.6346
     7 H(1)   Bbb    -0.0029    -1.544    -0.551    -0.515  0.7527 -0.4197 -0.5073
              Bcc     0.0060     3.214     1.147     1.072  0.6584  0.4759  0.5831
 
              Baa    -0.0066     0.478     0.171     0.160  0.3026  0.9135  0.2721
     8 O(17)  Bbb    -0.0029     0.211     0.075     0.070  0.8180 -0.3954  0.4178
              Bcc     0.0095    -0.689    -0.246    -0.230 -0.4893 -0.0961  0.8668
 
              Baa    -0.0015    -0.782    -0.279    -0.261  0.2778 -0.6111  0.7412
     9 H(1)   Bbb     0.0003     0.163     0.058     0.054  0.5611  0.7295  0.3912
              Bcc     0.0012     0.619     0.221     0.206  0.7798 -0.3072 -0.5455
 
              Baa    -0.0020     0.144     0.051     0.048  0.7336  0.6764  0.0651
    10 O(17)  Bbb     0.0007    -0.052    -0.019    -0.017 -0.2265  0.1531  0.9619
              Bcc     0.0013    -0.091    -0.033    -0.030 -0.6407  0.7204 -0.2655
 
              Baa    -0.0009    -0.503    -0.180    -0.168 -0.3175  0.0883  0.9441
    11 H(1)   Bbb    -0.0005    -0.265    -0.095    -0.089  0.3725  0.9272  0.0385
              Bcc     0.0014     0.769     0.274     0.256  0.8721 -0.3639  0.3273
 
              Baa    -0.0391     2.831     1.010     0.944  0.7870  0.4216  0.4504
    12 O(17)  Bbb    -0.0310     2.244     0.801     0.749 -0.6026  0.6820  0.4144
              Bcc     0.0701    -5.076    -1.811    -1.693 -0.1325 -0.5976  0.7908
 
              Baa    -0.0064    -3.393    -1.211    -1.132 -0.4785  0.0808  0.8744
    13 H(1)   Bbb    -0.0017    -0.894    -0.319    -0.298  0.4269  0.8916  0.1512
              Bcc     0.0080     4.288     1.530     1.430  0.7674 -0.4456  0.4611
 
              Baa    -0.0128     0.929     0.332     0.310  0.1262  0.7780 -0.6154
    14 O(17)  Bbb    -0.0082     0.594     0.212     0.198  0.2132  0.5846  0.7828
              Bcc     0.0211    -1.524    -0.544    -0.508  0.9688 -0.2300 -0.0921
 
              Baa    -0.0078     0.564     0.201     0.188  0.8163  0.2714 -0.5100
    15 O(17)  Bbb    -0.0060     0.438     0.156     0.146  0.4096  0.3505  0.8422
              Bcc     0.0138    -1.002    -0.358    -0.334 -0.4073  0.8964 -0.1749
 
              Baa    -0.0032    -0.428    -0.153    -0.143  0.0573 -0.0700  0.9959
    16 C(13)  Bbb    -0.0015    -0.199    -0.071    -0.066 -0.0393  0.9966  0.0723
              Bcc     0.0047     0.627     0.224     0.209  0.9976  0.0433 -0.0544
 
              Baa    -0.0033    -1.773    -0.633    -0.591  0.3633 -0.4890  0.7930
    17 H(1)   Bbb    -0.0023    -1.223    -0.436    -0.408 -0.2552  0.7664  0.5895
              Bcc     0.0056     2.996     1.069     0.999  0.8961  0.4165 -0.1536
 
              Baa    -0.0027    -1.428    -0.510    -0.476  0.3792  0.2137  0.9003
    18 H(1)   Bbb    -0.0016    -0.851    -0.304    -0.284 -0.3018  0.9483 -0.0979
              Bcc     0.0043     2.279     0.813     0.760  0.8747  0.2346 -0.4241
 
              Baa    -0.0084    -1.127    -0.402    -0.376  0.6911  0.7142  0.1112
    19 C(13)  Bbb     0.0028     0.382     0.136     0.127 -0.6675  0.6896 -0.2808
              Bcc     0.0055     0.744     0.266     0.248 -0.2772  0.1198  0.9533
 
              Baa    -0.2339   -31.386   -11.199   -10.469  0.8086 -0.0366 -0.5872
    20 C(13)  Bbb    -0.2213   -29.697   -10.597    -9.906  0.5139  0.5301  0.6745
              Bcc     0.4552    61.083    21.796    20.375 -0.2866  0.8472 -0.4474
 
              Baa    -0.0261    -3.504    -1.250    -1.169 -0.1408  0.4387  0.8875
    21 C(13)  Bbb    -0.0080    -1.070    -0.382    -0.357  0.9894  0.0943  0.1104
              Bcc     0.0341     4.574     1.632     1.526 -0.0353  0.8937 -0.4474
 
              Baa    -0.0151    -2.030    -0.724    -0.677 -0.3555  0.3397  0.8707
    22 C(13)  Bbb    -0.0019    -0.251    -0.089    -0.084  0.8601  0.4834  0.1626
              Bcc     0.0170     2.280     0.814     0.761 -0.3657  0.8068 -0.4641
 
              Baa    -0.0335   -17.878    -6.379    -5.963  0.8414 -0.0169 -0.5401
    23 H(1)   Bbb     0.0016     0.869     0.310     0.290 -0.3063  0.8085 -0.5024
              Bcc     0.0319    17.009     6.069     5.674  0.4452  0.5882  0.6751
 
              Baa    -0.3594   -13.860    -4.946    -4.623  0.9234  0.1259 -0.3626
    24 N(14)  Bbb    -0.3584   -13.823    -4.932    -4.611  0.2555  0.5032  0.8255
              Bcc     0.7178    27.683     9.878     9.234 -0.2864  0.8549 -0.4325
 
              Baa    -0.0048    -2.541    -0.907    -0.848  0.6746  0.7094  0.2044
    25 H(1)   Bbb    -0.0031    -1.670    -0.596    -0.557  0.4517 -0.6156  0.6457
              Bcc     0.0079     4.212     1.503     1.405 -0.5839  0.3432  0.7357
 
              Baa    -0.0685    -9.189    -3.279    -3.065  0.8897  0.4097  0.2013
    26 C(13)  Bbb    -0.0521    -6.997    -2.497    -2.334 -0.3494  0.3274  0.8779
              Bcc     0.1206    16.186     5.776     5.399 -0.2938  0.8515 -0.4344
 
              Baa    -0.0045    -2.380    -0.849    -0.794 -0.2302  0.8748 -0.4263
    27 H(1)   Bbb    -0.0028    -1.501    -0.536    -0.501  0.8445  0.3972  0.3592
              Bcc     0.0073     3.881     1.385     1.295 -0.4835  0.2773  0.8302
 
              Baa    -0.0101    -5.403    -1.928    -1.802 -0.0506  0.4403  0.8964
    28 H(1)   Bbb    -0.0038    -2.034    -0.726    -0.679 -0.2887  0.8528 -0.4352
              Bcc     0.0139     7.437     2.654     2.481  0.9561  0.2808 -0.0839
 

 ---------------------------------------------------------------------------------


 Test job not archived.
 1\1\GINC-BATAGIN2\SP\UB3LYP\6-31G(d,p)\C7H11N1O7P2(1-,2)\ORISON\22-Jan
 -2021\0\\#t B3LYP/6-31G(d,p) # Gfinput IOP(6/7=3) Pop=hirshfeld Densit
 y Test # Units(Ang,Deg)\\risendronate-opt-g09.log\\-1,2\C,0,0.61352,0.
 3651,-0.31802\O,0,0.43733,0.71687,-1.68379\H,0,0.90785,0.06818,-2.2300
 2\P,0,2.39156,0.69457,0.16221\P,0,0.4717,-1.47913,-0.04612\O,0,2.6424,
 2.28176,0.08758\H,0,3.16723,2.5059,-0.69487\O,0,2.47343,0.44675,1.7375
 9\H,0,2.03466,-0.41641,1.94181\O,0,1.39449,-2.07287,-1.21477\H,0,2.290
 41,-1.65614,-1.1569\O,0,-0.9389,-2.04141,-0.55502\H,0,-1.64571,-1.9056
 ,0.0961\O,0,0.84212,-1.75517,1.37924\O,0,3.26924,-0.11979,-0.74201\C,0
 ,-0.36783,1.20581,0.52548\H,0,-0.17405,2.25311,0.26867\H,0,-0.11361,1.
 08176,1.58103\C,0,-1.82642,0.87339,0.30767\C,0,-2.51331,1.23913,-0.856
 96\C,0,-2.54452,0.15829,1.27656\C,0,-3.8479,0.8712,-0.99945\H,0,-2.000
 04,1.79063,-1.63756\N,0,-3.82376,-0.21985,1.14629\H,0,-2.05591,-0.1273
 1,2.20867\C,0,-4.45543,0.13736,0.0217\H,0,-4.40953,1.13947,-1.88858\H,
 0,-5.49345,-0.17694,-0.06634\\Version=EM64L-G16RevA.03\State=2-A\HF=-1
 537.5270763\S2=0.757624\S2-1=0.\S2A=0.75003\RMSD=8.991e-09\Dipole=2.98
 87126,0.4496482,-1.0004823\Quadrupole=-20.6351154,9.4364901,11.1986253
 ,4.8591757,1.2415672,-1.1227408\PG=C01 [X(C7H11N1O7P2)]\\@


 IF AT FIRST YOU DON'T SUCCEED, TRY, TRY AGAIN.
 THEN GIVE UP;
 THERE'S NO USE BEING A DAMN FOOL ABOUT IT.

                                 -- W. C. FIELDS
 Job cpu time:       0 days  0 hours 24 minutes 27.8 seconds.
 Elapsed time:       0 days  0 hours  3 minutes  3.6 seconds.
 File lengths (MBytes):  RWF=     99 Int=      0 D2E=      0 Chk=      8 Scr=      1
 Normal termination of Gaussian 16 at Fri Jan 22 02:31:56 2021.
