28
risedronate_neutral_scf_g09.log	Energy: -964830.9747578
C         -0.61352       -0.36510       -0.31802
O         -0.43733       -0.71687       -1.68379
H         -0.90785       -0.06818       -2.23002
P         -2.39156       -0.69457        0.16221
P         -0.47170        1.47913       -0.04612
O         -2.64240       -2.28176        0.08758
H         -3.16723       -2.50590       -0.69487
O         -2.47343       -0.44675        1.73759
H         -2.03466        0.41641        1.94181
O         -1.39449        2.07287       -1.21477
H         -2.29041        1.65614       -1.15690
O          0.93890        2.04141       -0.55502
H          1.64571        1.90560        0.09610
O         -0.84212        1.75517        1.37924
O         -3.26924        0.11979       -0.74201
C          0.36783       -1.20581        0.52548
H          0.17405       -2.25311        0.26867
H          0.11361       -1.08176        1.58103
C          1.82642       -0.87339        0.30767
C          2.51331       -1.23913       -0.85696
C          2.54452       -0.15829        1.27656
C          3.84790       -0.87120       -0.99945
H          2.00004       -1.79063       -1.63756
N          3.82376        0.21985        1.14629
H          2.05591        0.12731        2.20867
C          4.45543       -0.13736        0.02170
H          4.40953       -1.13947       -1.88858
H          5.49345        0.17694       -0.06634
