 Entering Gaussian System, Link 0=g16
 Input=risendronate_neutral_scf_g09.com
 Output=risendronate_neutral_scf_g09.log
 Initial command:
 /usr/local//g16/l1.exe "/home/orison/scrgauss/Gau-22685.inp" -scrdir="/home/orison/scrgauss/"
 Entering Link 1 = /usr/local//g16/l1.exe PID=     22687.
  
 Copyright (c) 1988,1990,1992,1993,1995,1998,2003,2009,2016,
            Gaussian, Inc.  All Rights Reserved.
  
 This is part of the Gaussian(R) 16 program.  It is based on
 the Gaussian(R) 09 system (copyright 2009, Gaussian, Inc.),
 the Gaussian(R) 03 system (copyright 2003, Gaussian, Inc.),
 the Gaussian(R) 98 system (copyright 1998, Gaussian, Inc.),
 the Gaussian(R) 94 system (copyright 1995, Gaussian, Inc.),
 the Gaussian 92(TM) system (copyright 1992, Gaussian, Inc.),
 the Gaussian 90(TM) system (copyright 1990, Gaussian, Inc.),
 the Gaussian 88(TM) system (copyright 1988, Gaussian, Inc.),
 the Gaussian 86(TM) system (copyright 1986, Carnegie Mellon
 University), and the Gaussian 82(TM) system (copyright 1983,
 Carnegie Mellon University). Gaussian is a federally registered
 trademark of Gaussian, Inc.
  
 This software contains proprietary and confidential information,
 including trade secrets, belonging to Gaussian, Inc.
  
 This software is provided under written license and may be
 used, copied, transmitted, or stored only in accord with that
 written license.
  
 The following legend is applicable only to US Government
 contracts under FAR:
  
                    RESTRICTED RIGHTS LEGEND
  
 Use, reproduction and disclosure by the US Government is
 subject to restrictions as set forth in subparagraphs (a)
 and (c) of the Commercial Computer Software - Restricted
 Rights clause in FAR 52.227-19.
  
 Gaussian, Inc.
 340 Quinnipiac St., Bldg. 40, Wallingford CT 06492
  
  
 ---------------------------------------------------------------
 Warning -- This program may not be used in any manner that
 competes with the business of Gaussian, Inc. or will provide
 assistance to any competitor of Gaussian, Inc.  The licensee
 of this program is prohibited from giving any competitor of
 Gaussian, Inc. access to this program.  By using this program,
 the user acknowledges that Gaussian, Inc. is engaged in the
 business of creating and licensing software in the field of
 computational chemistry and represents and warrants to the
 licensee that it is not a competitor of Gaussian, Inc. and that
 it will not use this program in any manner prohibited above.
 ---------------------------------------------------------------
  

 Cite this work as:
 Gaussian 16, Revision A.03,
 M. J. Frisch, G. W. Trucks, H. B. Schlegel, G. E. Scuseria, 
 M. A. Robb, J. R. Cheeseman, G. Scalmani, V. Barone, 
 G. A. Petersson, H. Nakatsuji, X. Li, M. Caricato, A. V. Marenich, 
 J. Bloino, B. G. Janesko, R. Gomperts, B. Mennucci, H. P. Hratchian, 
 J. V. Ortiz, A. F. Izmaylov, J. L. Sonnenberg, D. Williams-Young, 
 F. Ding, F. Lipparini, F. Egidi, J. Goings, B. Peng, A. Petrone, 
 T. Henderson, D. Ranasinghe, V. G. Zakrzewski, J. Gao, N. Rega, 
 G. Zheng, W. Liang, M. Hada, M. Ehara, K. Toyota, R. Fukuda, 
 J. Hasegawa, M. Ishida, T. Nakajima, Y. Honda, O. Kitao, H. Nakai, 
 T. Vreven, K. Throssell, J. A. Montgomery, Jr., J. E. Peralta, 
 F. Ogliaro, M. J. Bearpark, J. J. Heyd, E. N. Brothers, K. N. Kudin, 
 V. N. Staroverov, T. A. Keith, R. Kobayashi, J. Normand, 
 K. Raghavachari, A. P. Rendell, J. C. Burant, S. S. Iyengar, 
 J. Tomasi, M. Cossi, J. M. Millam, M. Klene, C. Adamo, R. Cammi, 
 J. W. Ochterski, R. L. Martin, K. Morokuma, O. Farkas, 
 J. B. Foresman, and D. J. Fox, Gaussian, Inc., Wallingford CT, 2016.
 
 ******************************************
 Gaussian 16:  EM64L-G16RevA.03 25-Dec-2016
                22-Jan-2021 
 ******************************************
 %nproc=8
 Will use up to    8 processors via shared memory.
 %Mem=4GB
 ----------------------------------------------------------------------
 #t B3LYP/6-31G(d,p) # Gfinput IOP(6/7=3) Pop=hirshfeld Density Test # 
 Units(Ang,Deg)
 ----------------------------------------------------------------------
 ------------------------
 risendronate-opt-g09.log
 ------------------------
 Symbolic Z-matrix:
 Charge =  0 Multiplicity = 1
 C                     0.61352   0.3651   -0.31802 
 O                     0.43733   0.71687  -1.68379 
 H                     0.90785   0.06818  -2.23002 
 P                     2.39156   0.69457   0.16221 
 P                     0.4717   -1.47913  -0.04612 
 O                     2.6424    2.28176   0.08758 
 H                     3.16723   2.5059   -0.69487 
 O                     2.47343   0.44675   1.73759 
 H                     2.03466  -0.41641   1.94181 
 O                     1.39449  -2.07287  -1.21477 
 H                     2.29041  -1.65614  -1.1569 
 O                    -0.9389   -2.04141  -0.55502 
 H                    -1.64571  -1.9056    0.0961 
 O                     0.84212  -1.75517   1.37924 
 O                     3.26924  -0.11979  -0.74201 
 C                    -0.36783   1.20581   0.52548 
 H                    -0.17405   2.25311   0.26867 
 H                    -0.11361   1.08176   1.58103 
 C                    -1.82642   0.87339   0.30767 
 C                    -2.51331   1.23913  -0.85696 
 C                    -2.54452   0.15829   1.27656 
 C                    -3.8479    0.8712   -0.99945 
 H                    -2.00004   1.79063  -1.63756 
 N                    -3.82376  -0.21985   1.14629 
 H                    -2.05591  -0.12731   2.20867 
 C                    -4.45543   0.13736   0.0217 
 H                    -4.40953   1.13947  -1.88858 
 H                    -5.49345  -0.17694  -0.06634 
 
                    Distance matrix (angstroms):
                    1          2          3          4          5
     1  C    0.000000
     2  O    1.421307   0.000000
     3  H    1.957175   0.969822   0.000000
     4  P    1.870988   2.688350   2.883838   0.000000
     5  P    1.869553   2.739628   2.711792   2.907617   0.000000
     6  O    2.820364   3.232486   3.644156   1.608621   4.344434
     7  H    3.353576   3.410417   3.661142   2.148759   4.854608
     8  O    2.773349   3.990552   4.282089   1.596853   3.301145
     9  H    2.781587   4.120772   4.348413   2.128058   2.743006
    10  O    2.712521   2.986433   2.419018   3.247914   1.603063
    11  H    2.757008   3.056582   2.456896   2.697428   2.138427
    12  O    2.873581   3.282718   3.265958   4.369436   1.601540
    13  H    3.229813   3.792679   3.978355   4.802583   2.164608
    14  O    2.725526   3.956891   4.044216   3.143748   1.498352
    15  O    2.732716   3.099462   2.797440   1.500373   3.187209
    16  C    1.543157   2.401712   3.242583   2.829764   2.870617
    17  H    2.128157   2.558499   3.491114   3.003787   3.800750
    18  H    2.156087   3.331025   4.073675   2.904969   3.090042
    19  C    2.569660   3.019102   3.816342   4.224274   3.307699
    20  C    3.291117   3.108485   3.867913   5.039147   4.117849
    21  C    3.543822   4.238763   4.921695   5.088640   3.678071
    22  C    4.541448   4.342273   4.977580   6.349135   5.009175
    23  H    3.256381   2.663807   3.431278   4.871003   4.396989
    24  N    4.709121   5.200354   5.819842   6.358835   4.632343
    25  H    3.708435   4.698950   5.340792   4.964219   3.646959
    26  C    5.085423   5.213792   5.817199   6.871062   5.185967
    27  H    5.319524   4.869557   5.434958   7.117479   5.837648
    28  H    6.136142   6.212020   6.761526   7.936318   6.105663
                    6          7          8          9         10
     6  O    0.000000
     7  H    0.968459   0.000000
     8  O    2.473529   3.261644   0.000000
     9  H    3.329811   4.095692   0.989581   0.000000
    10  O    4.713406   4.937412   4.028527   3.621833   0.000000
    11  H    4.144838   4.278418   3.582417   3.347289   0.989791
    12  O    5.650526   6.128449   4.805309   4.209138   2.425071
    13  H    5.993492   6.576576   5.019497   4.378294   3.314993
    14  O    4.605019   5.278711   2.763700   1.879073   2.671130
    15  O    2.616981   2.628094   2.665089   2.969017   2.748220
    16  C    3.226594   3.959310   3.180903   3.226383   4.109013
    17  H    2.822411   3.486612   3.525594   3.847614   4.834771
    18  H    3.356484   4.239317   2.668431   2.643812   4.476891
    19  C    4.690661   5.348525   4.551418   4.386563   4.623044
    20  C    5.344210   5.822329   5.676895   5.590882   5.135005
    21  C    5.729480   6.482430   5.047334   4.662802   5.167262
    22  C    6.730179   7.209512   6.901504   6.701751   6.016358
    23  H    4.976903   5.301033   5.762776   5.827668   5.160254
    24  N    7.013569   7.726158   6.359921   5.915452   6.019836
    25  H    5.690058   6.530355   4.589813   4.109447   5.235495
    26  C    7.414984   8.014262   7.144865   6.790784   6.374601
    27  H    7.412135   7.790980   7.810513   7.656385   6.667818
    28  H    8.500644   9.088457   8.192334   7.795027   7.235825
                   11         12         13         14         15
    11  H    0.000000
    12  O    3.307436   0.000000
    13  H    4.138270   0.970558   0.000000
    14  O    2.922218   2.644868   2.803279   0.000000
    15  O    1.868318   4.629906   5.296063   3.614565   0.000000
    16  C    4.252928   3.469588   3.390902   3.310633   4.073331
    17  H    4.836119   4.439185   4.414797   4.281621   4.302136
    18  H    4.557595   3.872726   3.671058   3.000385   4.275969
    19  C    5.048938   3.166699   2.792884   3.895985   5.296601
    20  C    5.616785   3.651284   3.398585   5.022483   5.941192
    21  C    5.708803   3.281978   2.541847   3.891170   6.160500
    22  C    6.640112   4.140422   3.709513   5.878118   7.190412
    23  H    5.524420   4.120976   4.097956   5.454508   5.676004
    24  N    6.689595   3.812473   2.947635   4.917510   7.340731
    25  H    5.705688   3.542523   2.791690   3.425852   6.088004
    26  C    7.078990   4.176796   3.474730   5.786935   7.766589
    27  H    7.296574   4.893021   4.566192   6.829159   7.865359
    28  H    7.997864   4.945602   4.221345   6.687298   8.788887
                   16         17         18         19         20
    16  C    0.000000
    17  H    1.095600   0.000000
    18  H    1.092796   1.760114   0.000000
    19  C    1.511764   2.153015   2.144430   0.000000
    20  C    2.552515   2.786994   3.424488   1.400695   0.000000
    21  C    2.529703   3.320127   2.618172   1.402064   2.391881
    22  C    3.814218   4.124922   4.544022   2.407270   1.391692
    23  H    2.772159   2.679896   3.797425   2.157636   1.084866
    24  N    3.789639   4.495123   3.955806   2.426484   2.803375
    25  H    2.731291   3.601582   2.372406   2.160525   3.387397
    26  C    4.254862   4.782009   4.709013   2.745034   2.399536
    27  H    4.708230   4.881927   5.522359   3.400995   2.160977
    28  H    5.341744   5.857763   5.765486   3.832778   3.392870
                   21         22         23         24         25
    21  C    0.000000
    22  C    2.717952   0.000000
    23  H    3.384241   2.160352   0.000000
    24  N    1.340304   2.407317   3.888162   0.000000
    25  H    1.090475   3.807924   4.298267   2.064584   0.000000
    26  C    2.286195   1.396553   3.393433   1.338398   3.257389
    27  H    3.802511   1.085334   2.508518   3.376583   4.892005
    28  H    3.257598   2.162667   4.306272   2.064020   4.122477
                   26         27         28
    26  C    0.000000
    27  H    2.157661   0.000000
    28  H    1.088127   2.495672   0.000000
 Framework group  C1[X(C7H11NO7P2)]
 Deg. of freedom    78
                         Standard orientation:                         
 ---------------------------------------------------------------------
 Center     Atomic      Atomic             Coordinates (Angstroms)
 Number     Number       Type             X           Y           Z
 ---------------------------------------------------------------------
      1          6           0       -0.613520   -0.365099   -0.318019
      2          8           0       -0.437330   -0.716869   -1.683789
      3          1           0       -0.907850   -0.068179   -2.230019
      4         15           0       -2.391560   -0.694569    0.162211
      5         15           0       -0.471700    1.479131   -0.046119
      6          8           0       -2.642400   -2.281759    0.087581
      7          1           0       -3.167230   -2.505900   -0.694869
      8          8           0       -2.473430   -0.446749    1.737591
      9          1           0       -2.034660    0.416411    1.941811
     10          8           0       -1.394490    2.072871   -1.214769
     11          1           0       -2.290410    1.656141   -1.156899
     12          8           0        0.938900    2.041411   -0.555019
     13          1           0        1.645710    1.905601    0.096101
     14          8           0       -0.842120    1.755171    1.379241
     15          8           0       -3.269240    0.119790   -0.742009
     16          6           0        0.367830   -1.205809    0.525481
     17          1           0        0.174050   -2.253109    0.268671
     18          1           0        0.113610   -1.081759    1.581031
     19          6           0        1.826420   -0.873389    0.307671
     20          6           0        2.513310   -1.239129   -0.856959
     21          6           0        2.544520   -0.158289    1.276561
     22          6           0        3.847900   -0.871199   -0.999449
     23          1           0        2.000040   -1.790629   -1.637559
     24          7           0        3.823760    0.219851    1.146291
     25          1           0        2.055910    0.127311    2.208671
     26          6           0        4.455430   -0.137359    0.021701
     27          1           0        4.409530   -1.139469   -1.888579
     28          1           0        5.493450    0.176941   -0.066339
 ---------------------------------------------------------------------
 Rotational constants (GHZ):           0.7279921           0.2844406           0.2567218
 AO basis set in the form of general basis input (Overlap normalization):
      1 0
 S   6 1.00       0.000000000000
      0.3047524880D+04  0.1834737132D-02
      0.4573695180D+03  0.1403732281D-01
      0.1039486850D+03  0.6884262226D-01
      0.2921015530D+02  0.2321844432D+00
      0.9286662960D+01  0.4679413484D+00
      0.3163926960D+01  0.3623119853D+00
 SP   3 1.00       0.000000000000
      0.7868272350D+01 -0.1193324198D+00  0.6899906659D-01
      0.1881288540D+01 -0.1608541517D+00  0.3164239610D+00
      0.5442492580D+00  0.1143456438D+01  0.7443082909D+00
 SP   1 1.00       0.000000000000
      0.1687144782D+00  0.1000000000D+01  0.1000000000D+01
 D   1 1.00       0.000000000000
      0.8000000000D+00  0.1000000000D+01
 ****
      2 0
 S   6 1.00       0.000000000000
      0.5484671660D+04  0.1831074430D-02
      0.8252349460D+03  0.1395017220D-01
      0.1880469580D+03  0.6844507810D-01
      0.5296450000D+02  0.2327143360D+00
      0.1689757040D+02  0.4701928980D+00
      0.5799635340D+01  0.3585208530D+00
 SP   3 1.00       0.000000000000
      0.1553961625D+02 -0.1107775495D+00  0.7087426823D-01
      0.3599933586D+01 -0.1480262627D+00  0.3397528391D+00
      0.1013761750D+01  0.1130767015D+01  0.7271585773D+00
 SP   1 1.00       0.000000000000
      0.2700058226D+00  0.1000000000D+01  0.1000000000D+01
 D   1 1.00       0.000000000000
      0.8000000000D+00  0.1000000000D+01
 ****
      3 0
 S   3 1.00       0.000000000000
      0.1873113696D+02  0.3349460434D-01
      0.2825394365D+01  0.2347269535D+00
      0.6401216923D+00  0.8137573261D+00
 S   1 1.00       0.000000000000
      0.1612777588D+00  0.1000000000D+01
 P   1 1.00       0.000000000000
      0.1100000000D+01  0.1000000000D+01
 ****
      4 0
 S   6 1.00       0.000000000000
      0.1941330000D+05  0.1851598923D-02
      0.2909420000D+04  0.1420619174D-01
      0.6613640000D+03  0.6999945928D-01
      0.1857590000D+03  0.2400788603D+00
      0.5919430000D+02  0.4847617180D+00
      0.2003100000D+02  0.3351998050D+00
 SP   6 1.00       0.000000000000
      0.3394780000D+03 -0.2782170105D-02  0.4564616191D-02
      0.8101010000D+02 -0.3604990135D-01  0.3369357188D-01
      0.2587800000D+02 -0.1166310044D+00  0.1397548834D+00
      0.9452210000D+01  0.9683280364D-01  0.3393617168D+00
      0.3665660000D+01  0.6144180231D+00  0.4509206237D+00
      0.1467460000D+01  0.4037980152D+00  0.2385858009D+00
 SP   3 1.00       0.000000000000
      0.2156230000D+01 -0.2529241139D+00 -0.1776531273D-01
      0.7489970000D+00  0.3285184468D-01  0.2740581964D+00
      0.2831450000D+00  0.1081254762D+01  0.7854215630D+00
 SP   1 1.00       0.000000000000
      0.9983170000D-01  0.1000000000D+01  0.1000000000D+01
 D   1 1.00       0.000000000000
      0.5500000000D+00  0.1000000000D+01
 ****
      5 0
 S   6 1.00       0.000000000000
      0.1941330000D+05  0.1851598923D-02
      0.2909420000D+04  0.1420619174D-01
      0.6613640000D+03  0.6999945928D-01
      0.1857590000D+03  0.2400788603D+00
      0.5919430000D+02  0.4847617180D+00
      0.2003100000D+02  0.3351998050D+00
 SP   6 1.00       0.000000000000
      0.3394780000D+03 -0.2782170105D-02  0.4564616191D-02
      0.8101010000D+02 -0.3604990135D-01  0.3369357188D-01
      0.2587800000D+02 -0.1166310044D+00  0.1397548834D+00
      0.9452210000D+01  0.9683280364D-01  0.3393617168D+00
      0.3665660000D+01  0.6144180231D+00  0.4509206237D+00
      0.1467460000D+01  0.4037980152D+00  0.2385858009D+00
 SP   3 1.00       0.000000000000
      0.2156230000D+01 -0.2529241139D+00 -0.1776531273D-01
      0.7489970000D+00  0.3285184468D-01  0.2740581964D+00
      0.2831450000D+00  0.1081254762D+01  0.7854215630D+00
 SP   1 1.00       0.000000000000
      0.9983170000D-01  0.1000000000D+01  0.1000000000D+01
 D   1 1.00       0.000000000000
      0.5500000000D+00  0.1000000000D+01
 ****
      6 0
 S   6 1.00       0.000000000000
      0.5484671660D+04  0.1831074430D-02
      0.8252349460D+03  0.1395017220D-01
      0.1880469580D+03  0.6844507810D-01
      0.5296450000D+02  0.2327143360D+00
      0.1689757040D+02  0.4701928980D+00
      0.5799635340D+01  0.3585208530D+00
 SP   3 1.00       0.000000000000
      0.1553961625D+02 -0.1107775495D+00  0.7087426823D-01
      0.3599933586D+01 -0.1480262627D+00  0.3397528391D+00
      0.1013761750D+01  0.1130767015D+01  0.7271585773D+00
 SP   1 1.00       0.000000000000
      0.2700058226D+00  0.1000000000D+01  0.1000000000D+01
 D   1 1.00       0.000000000000
      0.8000000000D+00  0.1000000000D+01
 ****
      7 0
 S   3 1.00       0.000000000000
      0.1873113696D+02  0.3349460434D-01
      0.2825394365D+01  0.2347269535D+00
      0.6401216923D+00  0.8137573261D+00
 S   1 1.00       0.000000000000
      0.1612777588D+00  0.1000000000D+01
 P   1 1.00       0.000000000000
      0.1100000000D+01  0.1000000000D+01
 ****
      8 0
 S   6 1.00       0.000000000000
      0.5484671660D+04  0.1831074430D-02
      0.8252349460D+03  0.1395017220D-01
      0.1880469580D+03  0.6844507810D-01
      0.5296450000D+02  0.2327143360D+00
      0.1689757040D+02  0.4701928980D+00
      0.5799635340D+01  0.3585208530D+00
 SP   3 1.00       0.000000000000
      0.1553961625D+02 -0.1107775495D+00  0.7087426823D-01
      0.3599933586D+01 -0.1480262627D+00  0.3397528391D+00
      0.1013761750D+01  0.1130767015D+01  0.7271585773D+00
 SP   1 1.00       0.000000000000
      0.2700058226D+00  0.1000000000D+01  0.1000000000D+01
 D   1 1.00       0.000000000000
      0.8000000000D+00  0.1000000000D+01
 ****
      9 0
 S   3 1.00       0.000000000000
      0.1873113696D+02  0.3349460434D-01
      0.2825394365D+01  0.2347269535D+00
      0.6401216923D+00  0.8137573261D+00
 S   1 1.00       0.000000000000
      0.1612777588D+00  0.1000000000D+01
 P   1 1.00       0.000000000000
      0.1100000000D+01  0.1000000000D+01
 ****
     10 0
 S   6 1.00       0.000000000000
      0.5484671660D+04  0.1831074430D-02
      0.8252349460D+03  0.1395017220D-01
      0.1880469580D+03  0.6844507810D-01
      0.5296450000D+02  0.2327143360D+00
      0.1689757040D+02  0.4701928980D+00
      0.5799635340D+01  0.3585208530D+00
 SP   3 1.00       0.000000000000
      0.1553961625D+02 -0.1107775495D+00  0.7087426823D-01
      0.3599933586D+01 -0.1480262627D+00  0.3397528391D+00
      0.1013761750D+01  0.1130767015D+01  0.7271585773D+00
 SP   1 1.00       0.000000000000
      0.2700058226D+00  0.1000000000D+01  0.1000000000D+01
 D   1 1.00       0.000000000000
      0.8000000000D+00  0.1000000000D+01
 ****
     11 0
 S   3 1.00       0.000000000000
      0.1873113696D+02  0.3349460434D-01
      0.2825394365D+01  0.2347269535D+00
      0.6401216923D+00  0.8137573261D+00
 S   1 1.00       0.000000000000
      0.1612777588D+00  0.1000000000D+01
 P   1 1.00       0.000000000000
      0.1100000000D+01  0.1000000000D+01
 ****
     12 0
 S   6 1.00       0.000000000000
      0.5484671660D+04  0.1831074430D-02
      0.8252349460D+03  0.1395017220D-01
      0.1880469580D+03  0.6844507810D-01
      0.5296450000D+02  0.2327143360D+00
      0.1689757040D+02  0.4701928980D+00
      0.5799635340D+01  0.3585208530D+00
 SP   3 1.00       0.000000000000
      0.1553961625D+02 -0.1107775495D+00  0.7087426823D-01
      0.3599933586D+01 -0.1480262627D+00  0.3397528391D+00
      0.1013761750D+01  0.1130767015D+01  0.7271585773D+00
 SP   1 1.00       0.000000000000
      0.2700058226D+00  0.1000000000D+01  0.1000000000D+01
 D   1 1.00       0.000000000000
      0.8000000000D+00  0.1000000000D+01
 ****
     13 0
 S   3 1.00       0.000000000000
      0.1873113696D+02  0.3349460434D-01
      0.2825394365D+01  0.2347269535D+00
      0.6401216923D+00  0.8137573261D+00
 S   1 1.00       0.000000000000
      0.1612777588D+00  0.1000000000D+01
 P   1 1.00       0.000000000000
      0.1100000000D+01  0.1000000000D+01
 ****
     14 0
 S   6 1.00       0.000000000000
      0.5484671660D+04  0.1831074430D-02
      0.8252349460D+03  0.1395017220D-01
      0.1880469580D+03  0.6844507810D-01
      0.5296450000D+02  0.2327143360D+00
      0.1689757040D+02  0.4701928980D+00
      0.5799635340D+01  0.3585208530D+00
 SP   3 1.00       0.000000000000
      0.1553961625D+02 -0.1107775495D+00  0.7087426823D-01
      0.3599933586D+01 -0.1480262627D+00  0.3397528391D+00
      0.1013761750D+01  0.1130767015D+01  0.7271585773D+00
 SP   1 1.00       0.000000000000
      0.2700058226D+00  0.1000000000D+01  0.1000000000D+01
 D   1 1.00       0.000000000000
      0.8000000000D+00  0.1000000000D+01
 ****
     15 0
 S   6 1.00       0.000000000000
      0.5484671660D+04  0.1831074430D-02
      0.8252349460D+03  0.1395017220D-01
      0.1880469580D+03  0.6844507810D-01
      0.5296450000D+02  0.2327143360D+00
      0.1689757040D+02  0.4701928980D+00
      0.5799635340D+01  0.3585208530D+00
 SP   3 1.00       0.000000000000
      0.1553961625D+02 -0.1107775495D+00  0.7087426823D-01
      0.3599933586D+01 -0.1480262627D+00  0.3397528391D+00
      0.1013761750D+01  0.1130767015D+01  0.7271585773D+00
 SP   1 1.00       0.000000000000
      0.2700058226D+00  0.1000000000D+01  0.1000000000D+01
 D   1 1.00       0.000000000000
      0.8000000000D+00  0.1000000000D+01
 ****
     16 0
 S   6 1.00       0.000000000000
      0.3047524880D+04  0.1834737132D-02
      0.4573695180D+03  0.1403732281D-01
      0.1039486850D+03  0.6884262226D-01
      0.2921015530D+02  0.2321844432D+00
      0.9286662960D+01  0.4679413484D+00
      0.3163926960D+01  0.3623119853D+00
 SP   3 1.00       0.000000000000
      0.7868272350D+01 -0.1193324198D+00  0.6899906659D-01
      0.1881288540D+01 -0.1608541517D+00  0.3164239610D+00
      0.5442492580D+00  0.1143456438D+01  0.7443082909D+00
 SP   1 1.00       0.000000000000
      0.1687144782D+00  0.1000000000D+01  0.1000000000D+01
 D   1 1.00       0.000000000000
      0.8000000000D+00  0.1000000000D+01
 ****
     17 0
 S   3 1.00       0.000000000000
      0.1873113696D+02  0.3349460434D-01
      0.2825394365D+01  0.2347269535D+00
      0.6401216923D+00  0.8137573261D+00
 S   1 1.00       0.000000000000
      0.1612777588D+00  0.1000000000D+01
 P   1 1.00       0.000000000000
      0.1100000000D+01  0.1000000000D+01
 ****
     18 0
 S   3 1.00       0.000000000000
      0.1873113696D+02  0.3349460434D-01
      0.2825394365D+01  0.2347269535D+00
      0.6401216923D+00  0.8137573261D+00
 S   1 1.00       0.000000000000
      0.1612777588D+00  0.1000000000D+01
 P   1 1.00       0.000000000000
      0.1100000000D+01  0.1000000000D+01
 ****
     19 0
 S   6 1.00       0.000000000000
      0.3047524880D+04  0.1834737132D-02
      0.4573695180D+03  0.1403732281D-01
      0.1039486850D+03  0.6884262226D-01
      0.2921015530D+02  0.2321844432D+00
      0.9286662960D+01  0.4679413484D+00
      0.3163926960D+01  0.3623119853D+00
 SP   3 1.00       0.000000000000
      0.7868272350D+01 -0.1193324198D+00  0.6899906659D-01
      0.1881288540D+01 -0.1608541517D+00  0.3164239610D+00
      0.5442492580D+00  0.1143456438D+01  0.7443082909D+00
 SP   1 1.00       0.000000000000
      0.1687144782D+00  0.1000000000D+01  0.1000000000D+01
 D   1 1.00       0.000000000000
      0.8000000000D+00  0.1000000000D+01
 ****
     20 0
 S   6 1.00       0.000000000000
      0.3047524880D+04  0.1834737132D-02
      0.4573695180D+03  0.1403732281D-01
      0.1039486850D+03  0.6884262226D-01
      0.2921015530D+02  0.2321844432D+00
      0.9286662960D+01  0.4679413484D+00
      0.3163926960D+01  0.3623119853D+00
 SP   3 1.00       0.000000000000
      0.7868272350D+01 -0.1193324198D+00  0.6899906659D-01
      0.1881288540D+01 -0.1608541517D+00  0.3164239610D+00
      0.5442492580D+00  0.1143456438D+01  0.7443082909D+00
 SP   1 1.00       0.000000000000
      0.1687144782D+00  0.1000000000D+01  0.1000000000D+01
 D   1 1.00       0.000000000000
      0.8000000000D+00  0.1000000000D+01
 ****
     21 0
 S   6 1.00       0.000000000000
      0.3047524880D+04  0.1834737132D-02
      0.4573695180D+03  0.1403732281D-01
      0.1039486850D+03  0.6884262226D-01
      0.2921015530D+02  0.2321844432D+00
      0.9286662960D+01  0.4679413484D+00
      0.3163926960D+01  0.3623119853D+00
 SP   3 1.00       0.000000000000
      0.7868272350D+01 -0.1193324198D+00  0.6899906659D-01
      0.1881288540D+01 -0.1608541517D+00  0.3164239610D+00
      0.5442492580D+00  0.1143456438D+01  0.7443082909D+00
 SP   1 1.00       0.000000000000
      0.1687144782D+00  0.1000000000D+01  0.1000000000D+01
 D   1 1.00       0.000000000000
      0.8000000000D+00  0.1000000000D+01
 ****
     22 0
 S   6 1.00       0.000000000000
      0.3047524880D+04  0.1834737132D-02
      0.4573695180D+03  0.1403732281D-01
      0.1039486850D+03  0.6884262226D-01
      0.2921015530D+02  0.2321844432D+00
      0.9286662960D+01  0.4679413484D+00
      0.3163926960D+01  0.3623119853D+00
 SP   3 1.00       0.000000000000
      0.7868272350D+01 -0.1193324198D+00  0.6899906659D-01
      0.1881288540D+01 -0.1608541517D+00  0.3164239610D+00
      0.5442492580D+00  0.1143456438D+01  0.7443082909D+00
 SP   1 1.00       0.000000000000
      0.1687144782D+00  0.1000000000D+01  0.1000000000D+01
 D   1 1.00       0.000000000000
      0.8000000000D+00  0.1000000000D+01
 ****
     23 0
 S   3 1.00       0.000000000000
      0.1873113696D+02  0.3349460434D-01
      0.2825394365D+01  0.2347269535D+00
      0.6401216923D+00  0.8137573261D+00
 S   1 1.00       0.000000000000
      0.1612777588D+00  0.1000000000D+01
 P   1 1.00       0.000000000000
      0.1100000000D+01  0.1000000000D+01
 ****
     24 0
 S   6 1.00       0.000000000000
      0.4173511460D+04  0.1834772160D-02
      0.6274579110D+03  0.1399462700D-01
      0.1429020930D+03  0.6858655181D-01
      0.4023432930D+02  0.2322408730D+00
      0.1282021290D+02  0.4690699481D+00
      0.4390437010D+01  0.3604551991D+00
 SP   3 1.00       0.000000000000
      0.1162636186D+02 -0.1149611817D+00  0.6757974388D-01
      0.2716279807D+01 -0.1691174786D+00  0.3239072959D+00
      0.7722183966D+00  0.1145851947D+01  0.7408951398D+00
 SP   1 1.00       0.000000000000
      0.2120314975D+00  0.1000000000D+01  0.1000000000D+01
 D   1 1.00       0.000000000000
      0.8000000000D+00  0.1000000000D+01
 ****
     25 0
 S   3 1.00       0.000000000000
      0.1873113696D+02  0.3349460434D-01
      0.2825394365D+01  0.2347269535D+00
      0.6401216923D+00  0.8137573261D+00
 S   1 1.00       0.000000000000
      0.1612777588D+00  0.1000000000D+01
 P   1 1.00       0.000000000000
      0.1100000000D+01  0.1000000000D+01
 ****
     26 0
 S   6 1.00       0.000000000000
      0.3047524880D+04  0.1834737132D-02
      0.4573695180D+03  0.1403732281D-01
      0.1039486850D+03  0.6884262226D-01
      0.2921015530D+02  0.2321844432D+00
      0.9286662960D+01  0.4679413484D+00
      0.3163926960D+01  0.3623119853D+00
 SP   3 1.00       0.000000000000
      0.7868272350D+01 -0.1193324198D+00  0.6899906659D-01
      0.1881288540D+01 -0.1608541517D+00  0.3164239610D+00
      0.5442492580D+00  0.1143456438D+01  0.7443082909D+00
 SP   1 1.00       0.000000000000
      0.1687144782D+00  0.1000000000D+01  0.1000000000D+01
 D   1 1.00       0.000000000000
      0.8000000000D+00  0.1000000000D+01
 ****
     27 0
 S   3 1.00       0.000000000000
      0.1873113696D+02  0.3349460434D-01
      0.2825394365D+01  0.2347269535D+00
      0.6401216923D+00  0.8137573261D+00
 S   1 1.00       0.000000000000
      0.1612777588D+00  0.1000000000D+01
 P   1 1.00       0.000000000000
      0.1100000000D+01  0.1000000000D+01
 ****
     28 0
 S   3 1.00       0.000000000000
      0.1873113696D+02  0.3349460434D-01
      0.2825394365D+01  0.2347269535D+00
      0.6401216923D+00  0.8137573261D+00
 S   1 1.00       0.000000000000
      0.1612777588D+00  0.1000000000D+01
 P   1 1.00       0.000000000000
      0.1100000000D+01  0.1000000000D+01
 ****

   318 basis functions,   601 primitive gaussians,   318 cartesian basis functions
    73 alpha electrons       73 beta electrons
       nuclear repulsion energy      1704.7687367158 Hartrees.
 NAtoms=   28 NActive=   28 NUniq=   28 SFac= 1.00D+00 NAtFMM=   60 NAOKFM=F Big=F
 ExpMin= 9.98D-02 ExpMax= 1.94D+04 ExpMxC= 2.91D+03 IAcc=3 IRadAn=         5 AccDes= 0.00D+00
 Harris functional with IExCor=  402 and IRadAn=       5 diagonalized for initial guess.
 HarFok:  IExCor=  402 AccDes= 0.00D+00 IRadAn=         5 IDoV= 1 UseB2=F ITyADJ=14
 ICtDFT=  3500011 ScaDFX=  1.000000  1.000000  1.000000  1.000000
 FoFCou: FMM=F IPFlag=           0 FMFlag=      100000 FMFlg1=           0
         NFxFlg=           0 DoJE=T BraDBF=F KetDBF=T FulRan=T
         wScrn=  0.000000 ICntrl=       500 IOpCl=  0 I1Cent=   200000004 NGrid=           0
         NMat0=    1 NMatS0=      1 NMatT0=    0 NMatD0=    1 NMtDS0=    0 NMtDT0=    0
 Petite list used in FoFCou.
 Integral accuracy reduced to 1.0D-05 until final iterations.
 Initial convergence to 1.0D-05 achieved.  Increase integral accuracy.
 SCF Done:  E(RB3LYP) =  -1537.55604086     A.U. after   15 cycles
            NFock= 15  Conv=0.46D-08     -V/T= 2.0067

 **********************************************************************

            Population analysis using the SCF density.

 **********************************************************************

 Orbital symmetries:
       Occupied  (A) (A) (A) (A) (A) (A) (A) (A) (A) (A) (A) (A)
                 (A) (A) (A) (A) (A) (A) (A) (A) (A) (A) (A) (A)
                 (A) (A) (A) (A) (A) (A) (A) (A) (A) (A) (A) (A)
                 (A) (A) (A) (A) (A) (A) (A) (A) (A) (A) (A) (A)
                 (A) (A) (A) (A) (A) (A) (A) (A) (A) (A) (A) (A)
                 (A) (A) (A) (A) (A) (A) (A) (A) (A) (A) (A) (A)
                 (A)
       Virtual   (A) (A) (A) (A) (A) (A) (A) (A) (A) (A) (A) (A)
                 (A) (A) (A) (A) (A) (A) (A) (A) (A) (A) (A) (A)
                 (A) (A) (A) (A) (A) (A) (A) (A) (A) (A) (A) (A)
                 (A) (A) (A) (A) (A) (A) (A) (A) (A) (A) (A) (A)
                 (A) (A) (A) (A) (A) (A) (A) (A) (A) (A) (A) (A)
                 (A) (A) (A) (A) (A) (A) (A) (A) (A) (A) (A) (A)
                 (A) (A) (A) (A) (A) (A) (A) (A) (A) (A) (A) (A)
                 (A) (A) (A) (A) (A) (A) (A) (A) (A) (A) (A) (A)
                 (A) (A) (A) (A) (A) (A) (A) (A) (A) (A) (A) (A)
                 (A) (A) (A) (A) (A) (A) (A) (A) (A) (A) (A) (A)
                 (A) (A) (A) (A) (A) (A) (A) (A) (A) (A) (A) (A)
                 (A) (A) (A) (A) (A) (A) (A) (A) (A) (A) (A) (A)
                 (A) (A) (A) (A) (A) (A) (A) (A) (A) (A) (A) (A)
                 (A) (A) (A) (A) (A) (A) (A) (A) (A) (A) (A) (A)
                 (A) (A) (A) (A) (A) (A) (A) (A) (A) (A) (A) (A)
                 (A) (A) (A) (A) (A) (A) (A) (A) (A) (A) (A) (A)
                 (A) (A) (A) (A) (A) (A) (A) (A) (A) (A) (A) (A)
                 (A) (A) (A) (A) (A) (A) (A) (A) (A) (A) (A) (A)
                 (A) (A) (A) (A) (A) (A) (A) (A) (A) (A) (A) (A)
                 (A) (A) (A) (A) (A) (A) (A) (A) (A) (A) (A) (A)
                 (A) (A) (A) (A) (A)
 The electronic state is 1-A.
 Alpha  occ. eigenvalues --  -77.24399 -77.24315 -19.21377 -19.21048 -19.19598
 Alpha  occ. eigenvalues --  -19.19456 -19.19304 -19.14134 -19.14117 -14.34720
 Alpha  occ. eigenvalues --  -10.28851 -10.23843 -10.23771 -10.22719 -10.22555
 Alpha  occ. eigenvalues --  -10.22166 -10.21509  -6.69329  -6.69284  -4.85761
 Alpha  occ. eigenvalues --   -4.85720  -4.85642  -4.85590  -4.85445  -4.85390
 Alpha  occ. eigenvalues --   -1.10645  -1.09804  -1.06414  -1.05299  -1.04930
 Alpha  occ. eigenvalues --   -0.99074  -0.98619  -0.95661  -0.84118  -0.80013
 Alpha  occ. eigenvalues --   -0.76415  -0.69154  -0.66126  -0.64710  -0.64299
 Alpha  occ. eigenvalues --   -0.61685  -0.57710  -0.54981  -0.53861  -0.53562
 Alpha  occ. eigenvalues --   -0.52581  -0.50341  -0.48675  -0.47986  -0.47550
 Alpha  occ. eigenvalues --   -0.46194  -0.45460  -0.43779  -0.42944  -0.42099
 Alpha  occ. eigenvalues --   -0.41884  -0.41246  -0.41010  -0.39992  -0.39872
 Alpha  occ. eigenvalues --   -0.38380  -0.37382  -0.37263  -0.37201  -0.35377
 Alpha  occ. eigenvalues --   -0.33761  -0.32211  -0.32014  -0.31620  -0.29914
 Alpha  occ. eigenvalues --   -0.28289  -0.27399  -0.26792
 Alpha virt. eigenvalues --   -0.04278  -0.03216   0.00866   0.04107   0.04432
 Alpha virt. eigenvalues --    0.05291   0.07891   0.09417   0.10541   0.10691
 Alpha virt. eigenvalues --    0.11385   0.11546   0.11957   0.12206   0.13834
 Alpha virt. eigenvalues --    0.14919   0.15447   0.16003   0.17194   0.18094
 Alpha virt. eigenvalues --    0.19332   0.20648   0.22360   0.22955   0.24153
 Alpha virt. eigenvalues --    0.25165   0.29237   0.29313   0.30498   0.31906
 Alpha virt. eigenvalues --    0.34678   0.35184   0.38730   0.39105   0.39785
 Alpha virt. eigenvalues --    0.42105   0.43431   0.43918   0.45496   0.48705
 Alpha virt. eigenvalues --    0.51434   0.52812   0.54111   0.54705   0.56328
 Alpha virt. eigenvalues --    0.56910   0.57264   0.58297   0.59117   0.59651
 Alpha virt. eigenvalues --    0.62744   0.63483   0.64563   0.64996   0.67506
 Alpha virt. eigenvalues --    0.68031   0.69085   0.71979   0.72829   0.74217
 Alpha virt. eigenvalues --    0.75961   0.77299   0.77762   0.78840   0.79993
 Alpha virt. eigenvalues --    0.80509   0.80580   0.81765   0.83097   0.83867
 Alpha virt. eigenvalues --    0.85107   0.85844   0.87599   0.88175   0.89195
 Alpha virt. eigenvalues --    0.90277   0.90911   0.92257   0.94793   0.95526
 Alpha virt. eigenvalues --    0.95662   0.96858   0.97437   0.98022   0.98856
 Alpha virt. eigenvalues --    1.00626   1.00957   1.02068   1.03482   1.03826
 Alpha virt. eigenvalues --    1.04998   1.05740   1.06080   1.07578   1.09277
 Alpha virt. eigenvalues --    1.11201   1.13031   1.13745   1.14910   1.15329
 Alpha virt. eigenvalues --    1.17147   1.19884   1.21509   1.22822   1.24246
 Alpha virt. eigenvalues --    1.24846   1.26233   1.26916   1.30492   1.32661
 Alpha virt. eigenvalues --    1.33081   1.34764   1.37625   1.38745   1.41161
 Alpha virt. eigenvalues --    1.42383   1.43675   1.45515   1.46158   1.47063
 Alpha virt. eigenvalues --    1.50576   1.52667   1.54285   1.55962   1.57085
 Alpha virt. eigenvalues --    1.57337   1.59036   1.59536   1.61918   1.63385
 Alpha virt. eigenvalues --    1.64857   1.68106   1.69018   1.72395   1.73910
 Alpha virt. eigenvalues --    1.74731   1.75381   1.77171   1.77629   1.79962
 Alpha virt. eigenvalues --    1.81012   1.81665   1.82786   1.83221   1.85238
 Alpha virt. eigenvalues --    1.86974   1.88301   1.88919   1.89750   1.91869
 Alpha virt. eigenvalues --    1.92807   1.93861   1.95785   1.96458   1.97185
 Alpha virt. eigenvalues --    1.99352   2.01454   2.04946   2.06846   2.07358
 Alpha virt. eigenvalues --    2.08692   2.09912   2.11544   2.14770   2.18696
 Alpha virt. eigenvalues --    2.19963   2.20344   2.23696   2.26116   2.27451
 Alpha virt. eigenvalues --    2.30806   2.31436   2.31702   2.33286   2.33720
 Alpha virt. eigenvalues --    2.35822   2.37341   2.37586   2.38422   2.39945
 Alpha virt. eigenvalues --    2.41502   2.43399   2.45637   2.47059   2.48492
 Alpha virt. eigenvalues --    2.49655   2.50191   2.51158   2.53072   2.57624
 Alpha virt. eigenvalues --    2.58863   2.59536   2.60573   2.60603   2.61585
 Alpha virt. eigenvalues --    2.62015   2.63304   2.65288   2.66708   2.66828
 Alpha virt. eigenvalues --    2.68616   2.69840   2.71424   2.71986   2.76780
 Alpha virt. eigenvalues --    2.77269   2.79033   2.81277   2.83453   2.84098
 Alpha virt. eigenvalues --    2.86158   2.89814   2.98074   3.00433   3.05451
 Alpha virt. eigenvalues --    3.18766   3.21964   3.25604   3.28721   3.33419
 Alpha virt. eigenvalues --    3.37692   3.38586   3.38971   3.42838   3.43506
 Alpha virt. eigenvalues --    3.43975   3.47406   3.51560   3.52226   3.78143
 Alpha virt. eigenvalues --    3.79912   3.86341   3.98847   4.07726   4.10730
 Alpha virt. eigenvalues --    4.11980   4.19183   4.19945   4.26076   4.27540
 Alpha virt. eigenvalues --    4.31886   4.36411   4.46988   4.63358   4.75710
     Molecular Orbital Coefficients:
                           1         2         3         4         5
                           O         O         O         O         O
     Eigenvalues --   -77.24399 -77.24315 -19.21377 -19.21048 -19.19598
   1 1   C  1S         -0.00002  -0.00003  -0.00002  -0.00003  -0.00001
   2        2S          0.00002  -0.00001  -0.00011  -0.00017  -0.00010
   3        2PX         0.00000  -0.00003  -0.00003  -0.00000  -0.00006
   4        2PY         0.00005  -0.00002  -0.00002   0.00001   0.00001
   5        2PZ        -0.00001   0.00001  -0.00001   0.00007   0.00002
   6        3S          0.00051   0.00076   0.00045   0.00086   0.00076
   7        3PX         0.00017  -0.00036  -0.00034  -0.00002   0.00066
   8        3PY         0.00042  -0.00027   0.00022   0.00040   0.00022
   9        3PZ        -0.00006   0.00014   0.00076  -0.00049  -0.00029
  10        4XX        -0.00007  -0.00012   0.00004  -0.00002  -0.00002
  11        4YY        -0.00013  -0.00007   0.00000   0.00002   0.00003
  12        4ZZ        -0.00004  -0.00006  -0.00006  -0.00003   0.00002
  13        4XY        -0.00001  -0.00002   0.00004   0.00003  -0.00001
  14        4XZ         0.00000   0.00003  -0.00002  -0.00000   0.00001
  15        4YZ        -0.00002   0.00001  -0.00002  -0.00000   0.00001
  16 2   O  1S          0.00000  -0.00000  -0.00000  -0.00001  -0.00010
  17        2S          0.00002  -0.00000  -0.00021  -0.00004  -0.00002
  18        2PX         0.00001   0.00001   0.00002  -0.00002  -0.00002
  19        2PY        -0.00001  -0.00001   0.00001  -0.00004  -0.00002
  20        2PZ        -0.00001  -0.00001  -0.00002  -0.00002   0.00001
  21        3S         -0.00020  -0.00012   0.00107  -0.00013  -0.00010
  22        3PX        -0.00007   0.00006  -0.00010   0.00012  -0.00000
  23        3PY        -0.00005   0.00007  -0.00001   0.00007   0.00013
  24        3PZ        -0.00014  -0.00009   0.00032   0.00004  -0.00017
  25        4XX        -0.00002   0.00002  -0.00014  -0.00005  -0.00002
  26        4YY         0.00003  -0.00003  -0.00015  -0.00002   0.00004
  27        4ZZ         0.00000  -0.00001  -0.00011  -0.00005  -0.00005
  28        4XY        -0.00001  -0.00001   0.00003   0.00003  -0.00001
  29        4XZ        -0.00000   0.00000  -0.00003  -0.00000  -0.00001
  30        4YZ        -0.00003   0.00001   0.00001   0.00001  -0.00002
  31 3   H  1S         -0.00003  -0.00001  -0.00001  -0.00004  -0.00002
  32        2S         -0.00018  -0.00018  -0.00001   0.00039  -0.00002
  33        3PX        -0.00001   0.00003   0.00003   0.00002  -0.00001
  34        3PY        -0.00001   0.00000  -0.00001  -0.00000   0.00000
  35        3PZ        -0.00003  -0.00004   0.00000   0.00003  -0.00002
  36 4   P  1S         -0.00234   0.99625   0.00001   0.00000  -0.00000
  37        2S         -0.00006   0.01418  -0.00001   0.00005  -0.00003
  38        2PX         0.00001   0.00002  -0.00001  -0.00001   0.00000
  39        2PY        -0.00000  -0.00002   0.00006   0.00000  -0.00001
  40        2PZ        -0.00001   0.00002  -0.00000  -0.00000   0.00000
  41        3S          0.00002  -0.02722   0.00029   0.00020  -0.00025
  42        3PX        -0.00011  -0.00015   0.00015   0.00008  -0.00006
  43        3PY        -0.00001  -0.00002  -0.00018  -0.00001   0.00005
  44        3PZ         0.00005   0.00003  -0.00002   0.00002  -0.00003
  45        4S          0.00033   0.00276  -0.00289  -0.00106   0.00139
  46        4PX         0.00016   0.00013  -0.00101  -0.00034   0.00036
  47        4PY         0.00001   0.00018   0.00214  -0.00066   0.00071
  48        4PZ         0.00006  -0.00012  -0.00118   0.00001  -0.00003
  49        5XX        -0.00007   0.00943  -0.00001   0.00004   0.00005
  50        5YY        -0.00004   0.00946   0.00028   0.00003   0.00004
  51        5ZZ        -0.00003   0.00948  -0.00010   0.00001   0.00006
  52        5XY        -0.00002  -0.00004   0.00003  -0.00001   0.00000
  53        5XZ         0.00001   0.00002  -0.00001   0.00001   0.00003
  54        5YZ        -0.00000  -0.00001   0.00004   0.00001  -0.00004
  55 5   P  1S          0.99625   0.00234   0.00000   0.00001   0.00001
  56        2S          0.01417   0.00001   0.00001  -0.00005  -0.00002
  57        2PX         0.00001   0.00000  -0.00000  -0.00005   0.00003
  58        2PY        -0.00001  -0.00001  -0.00000  -0.00002  -0.00002
  59        2PZ        -0.00003  -0.00000   0.00001   0.00003   0.00006
  60        3S         -0.02727  -0.00011   0.00006   0.00014   0.00027
  61        3PX         0.00001  -0.00000   0.00001   0.00016  -0.00011
  62        3PY         0.00019   0.00012   0.00003   0.00003   0.00002
  63        3PZ         0.00006   0.00001  -0.00007  -0.00014  -0.00024
  64        4S          0.00305   0.00033  -0.00059  -0.00211  -0.00290
  65        4PX        -0.00001  -0.00009   0.00052  -0.00160   0.00080
  66        4PY        -0.00033  -0.00013   0.00027  -0.00046  -0.00019
  67        4PZ         0.00019  -0.00007  -0.00020   0.00194   0.00172
  68        5XX         0.00945   0.00001   0.00002   0.00020   0.00005
  69        5YY         0.00943  -0.00004  -0.00001  -0.00005   0.00000
  70        5ZZ         0.00951   0.00001   0.00000  -0.00007   0.00012
  71        5XY        -0.00001  -0.00001  -0.00001   0.00011  -0.00006
  72        5XZ        -0.00002  -0.00000  -0.00001  -0.00013   0.00020
  73        5YZ         0.00000  -0.00001   0.00002  -0.00005  -0.00012
  74 6   O  1S          0.00000  -0.00002   0.99269   0.00014  -0.00003
  75        2S          0.00001  -0.00009   0.02574   0.00003  -0.00002
  76        2PX         0.00000   0.00001  -0.00042  -0.00001   0.00001
  77        2PY        -0.00000  -0.00010   0.00049  -0.00000  -0.00000
  78        2PZ         0.00000   0.00001  -0.00077   0.00001  -0.00001
  79        3S         -0.00006   0.00093   0.01290  -0.00012   0.00010
  80        3PX        -0.00001  -0.00008   0.00041   0.00003  -0.00003
  81        3PY        -0.00000   0.00036   0.00044   0.00000  -0.00001
  82        3PZ        -0.00002  -0.00009   0.00039  -0.00005   0.00004
  83        4XX        -0.00000  -0.00004  -0.00823   0.00002  -0.00002
  84        4YY         0.00000  -0.00029  -0.00830   0.00001  -0.00002
  85        4ZZ        -0.00000  -0.00001  -0.00824   0.00002  -0.00002
  86        4XY         0.00000  -0.00004   0.00001   0.00001  -0.00000
  87        4XZ        -0.00000   0.00004  -0.00001   0.00000  -0.00001
  88        4YZ        -0.00000   0.00000   0.00002  -0.00000  -0.00000
  89 7   H  1S         -0.00000  -0.00009   0.00040  -0.00000  -0.00000
  90        2S          0.00000  -0.00022  -0.00090  -0.00008   0.00006
  91        3PX        -0.00000   0.00000  -0.00005  -0.00001   0.00001
  92        3PY        -0.00000   0.00001  -0.00007  -0.00001   0.00000
  93        3PZ         0.00000  -0.00001  -0.00006  -0.00000   0.00001
  94 8   O  1S          0.00002  -0.00001   0.00006   0.00002  -0.00044
  95        2S          0.00007  -0.00005  -0.00028  -0.00009   0.00012
  96        2PX         0.00001  -0.00001  -0.00004   0.00000   0.00000
  97        2PY        -0.00000   0.00000   0.00002  -0.00001   0.00001
  98        2PZ        -0.00002   0.00010  -0.00003   0.00001  -0.00002
  99        3S         -0.00028   0.00076   0.00174   0.00051  -0.00065
 100        3PX        -0.00006   0.00003   0.00019   0.00002  -0.00003
 101        3PY         0.00001   0.00000  -0.00035   0.00010  -0.00009
 102        3PZ         0.00014  -0.00034  -0.00022  -0.00009   0.00019
 103        4XX         0.00005  -0.00001  -0.00016  -0.00007   0.00010
 104        4YY         0.00005  -0.00000  -0.00030  -0.00005   0.00009
 105        4ZZ         0.00003  -0.00027  -0.00020  -0.00006   0.00008
 106        4XY        -0.00001   0.00001  -0.00004  -0.00000  -0.00000
 107        4XZ         0.00002   0.00003  -0.00004   0.00001   0.00000
 108        4YZ         0.00001  -0.00003  -0.00004  -0.00000   0.00001
 109 9   H  1S          0.00001  -0.00004   0.00006  -0.00003   0.00004
 110        2S         -0.00018  -0.00017   0.00005  -0.00013  -0.00010
 111        3PX        -0.00001   0.00000  -0.00004   0.00001  -0.00001
 112        3PY        -0.00000  -0.00001  -0.00004   0.00002   0.00000
 113        3PZ         0.00002  -0.00003  -0.00000   0.00001   0.00000
 114 10  O  1S         -0.00001   0.00001   0.00001   0.00011   0.99268
 115        2S         -0.00006   0.00007  -0.00005  -0.00019   0.02571
 116        2PX        -0.00004   0.00001   0.00001   0.00001  -0.00030
 117        2PY         0.00004  -0.00002  -0.00000   0.00000  -0.00061
 118        2PZ        -0.00008   0.00001  -0.00001   0.00004   0.00057
 119        3S          0.00079  -0.00027   0.00032   0.00131   0.01310
 120        3PX         0.00014  -0.00005  -0.00009   0.00026   0.00018
 121        3PY        -0.00013   0.00010  -0.00003  -0.00006  -0.00020
 122        3PZ         0.00028  -0.00009   0.00007  -0.00007   0.00018
 123        4XX        -0.00008   0.00005  -0.00003  -0.00029  -0.00828
 124        4YY        -0.00007   0.00003  -0.00004  -0.00010  -0.00827
 125        4ZZ        -0.00016   0.00004  -0.00003  -0.00014  -0.00831
 126        4XY         0.00008  -0.00001   0.00000  -0.00005   0.00002
 127        4XZ        -0.00012  -0.00000  -0.00001  -0.00002  -0.00004
 128        4YZ         0.00009   0.00002   0.00000   0.00001   0.00003
 129 11  H  1S         -0.00005   0.00001  -0.00002   0.00008   0.00037
 130        2S         -0.00015  -0.00016  -0.00018  -0.00008  -0.00141
 131        3PX         0.00002   0.00000  -0.00002   0.00005  -0.00008
 132        3PY        -0.00001   0.00001  -0.00001   0.00004   0.00001
 133        3PZ         0.00001  -0.00001  -0.00000  -0.00001  -0.00002
 134 12  O  1S         -0.00001  -0.00000  -0.00012   0.99267  -0.00022
 135        2S         -0.00005  -0.00000   0.00004   0.02571  -0.00017
 136        2PX         0.00008   0.00000  -0.00000   0.00003  -0.00004
 137        2PY         0.00003  -0.00000   0.00001  -0.00038   0.00001
 138        2PZ        -0.00006  -0.00000  -0.00000   0.00089   0.00001
 139        3S          0.00075   0.00000  -0.00021   0.01315   0.00113
 140        3PX        -0.00024  -0.00000   0.00006  -0.00042  -0.00013
 141        3PY        -0.00008   0.00001  -0.00003  -0.00019  -0.00009
 142        3PZ         0.00022   0.00002   0.00002  -0.00016  -0.00011
 143        4XX        -0.00019  -0.00001   0.00003  -0.00832  -0.00025
 144        4YY        -0.00006  -0.00001   0.00003  -0.00828  -0.00009
 145        4ZZ        -0.00002  -0.00001   0.00003  -0.00830  -0.00015
 146        4XY        -0.00010   0.00000  -0.00000  -0.00002   0.00003
 147        4XZ         0.00011  -0.00000   0.00001   0.00005  -0.00008
 148        4YZ         0.00003  -0.00000  -0.00000   0.00002   0.00004
 149 13  H  1S         -0.00008  -0.00000  -0.00000   0.00040   0.00007
 150        2S         -0.00019   0.00000  -0.00011  -0.00120  -0.00017
 151        3PX         0.00000   0.00000   0.00001   0.00010  -0.00002
 152        3PY        -0.00001   0.00000   0.00001   0.00002   0.00002
 153        3PZ        -0.00001  -0.00000   0.00001   0.00005  -0.00006
 154 14  O  1S          0.00002   0.00001  -0.00002  -0.00001  -0.00003
 155        2S          0.00001   0.00006  -0.00010   0.00015   0.00002
 156        2PX        -0.00003  -0.00000   0.00001  -0.00002   0.00004
 157        2PY         0.00002  -0.00001   0.00000  -0.00001  -0.00003
 158        2PZ         0.00017  -0.00001   0.00001  -0.00002   0.00000
 159        3S          0.00024  -0.00023   0.00053  -0.00085  -0.00008
 160        3PX         0.00004   0.00004  -0.00005   0.00018  -0.00018
 161        3PY         0.00001   0.00007  -0.00006   0.00008   0.00013
 162        3PZ        -0.00031   0.00008  -0.00009  -0.00003  -0.00026
 163        4XX         0.00008   0.00003  -0.00007   0.00012   0.00001
 164        4YY         0.00008   0.00002  -0.00006   0.00013   0.00004
 165        4ZZ        -0.00015   0.00002  -0.00006   0.00016   0.00010
 166        4XY         0.00002  -0.00001  -0.00000  -0.00001   0.00002
 167        4XZ         0.00007  -0.00001   0.00001  -0.00004   0.00000
 168        4YZ        -0.00007  -0.00001   0.00000  -0.00001  -0.00001
 169 15  O  1S          0.00001   0.00001  -0.00001  -0.00002  -0.00001
 170        2S          0.00006  -0.00004   0.00016  -0.00011   0.00005
 171        2PX         0.00001  -0.00010   0.00000  -0.00001   0.00002
 172        2PY        -0.00000   0.00010   0.00000  -0.00001  -0.00002
 173        2PZ         0.00001  -0.00011   0.00002  -0.00001   0.00002
 174        3S         -0.00021   0.00046  -0.00086   0.00060  -0.00034
 175        3PX        -0.00011   0.00018   0.00003   0.00011  -0.00007
 176        3PY        -0.00001  -0.00022  -0.00015   0.00004   0.00025
 177        3PZ        -0.00005   0.00024  -0.00003   0.00009  -0.00022
 178        4XX         0.00001  -0.00005   0.00014  -0.00007   0.00003
 179        4YY         0.00004  -0.00001   0.00014  -0.00009   0.00007
 180        4ZZ         0.00003  -0.00004   0.00014  -0.00007   0.00001
 181        4XY        -0.00001   0.00010  -0.00002   0.00000   0.00004
 182        4XZ        -0.00001  -0.00011  -0.00000   0.00000  -0.00003
 183        4YZ        -0.00000   0.00009  -0.00003   0.00000   0.00000
 184 16  C  1S         -0.00001  -0.00000  -0.00001  -0.00000   0.00002
 185        2S         -0.00001   0.00002  -0.00002   0.00000   0.00011
 186        2PX         0.00001   0.00004   0.00007   0.00000   0.00000
 187        2PY        -0.00003   0.00000   0.00000  -0.00001   0.00002
 188        2PZ         0.00003   0.00001  -0.00001  -0.00001   0.00002
 189        3S          0.00019  -0.00035  -0.00070  -0.00028  -0.00070
 190        3PX         0.00019  -0.00007  -0.00114  -0.00053  -0.00005
 191        3PY        -0.00021  -0.00022  -0.00038   0.00004  -0.00043
 192        3PZ        -0.00020   0.00020  -0.00015   0.00011   0.00012
 193        4XX        -0.00002  -0.00005  -0.00003  -0.00001   0.00004
 194        4YY        -0.00006  -0.00001  -0.00001   0.00000   0.00004
 195        4ZZ        -0.00004  -0.00001  -0.00001  -0.00001   0.00002
 196        4XY         0.00001   0.00002   0.00001  -0.00001   0.00000
 197        4XZ        -0.00001  -0.00001   0.00003   0.00000  -0.00001
 198        4YZ         0.00001  -0.00000  -0.00000  -0.00001   0.00003
 199 17  H  1S         -0.00003   0.00001   0.00000   0.00001  -0.00002
 200        2S         -0.00008  -0.00022  -0.00018   0.00002  -0.00009
 201        3PX        -0.00001   0.00003   0.00001   0.00002  -0.00000
 202        3PY         0.00001  -0.00002  -0.00002   0.00000  -0.00001
 203        3PZ         0.00001  -0.00001  -0.00002  -0.00001  -0.00001
 204 18  H  1S          0.00003   0.00000  -0.00007  -0.00001   0.00005
 205        2S         -0.00005  -0.00021   0.00047  -0.00012  -0.00007
 206        3PX         0.00000   0.00003   0.00002   0.00001   0.00001
 207        3PY        -0.00003   0.00000   0.00001  -0.00001   0.00001
 208        3PZ         0.00001   0.00002  -0.00003   0.00001   0.00001
 209 19  C  1S          0.00002  -0.00001  -0.00001  -0.00000   0.00001
 210        2S          0.00008  -0.00002  -0.00007  -0.00003   0.00002
 211        2PX         0.00000   0.00002   0.00002   0.00002  -0.00002
 212        2PY        -0.00002   0.00001   0.00001   0.00003  -0.00000
 213        2PZ        -0.00004   0.00001   0.00001  -0.00002  -0.00001
 214        3S         -0.00037   0.00001   0.00075  -0.00016  -0.00002
 215        3PX         0.00023  -0.00046  -0.00104  -0.00087  -0.00022
 216        3PY         0.00030  -0.00012  -0.00024  -0.00025   0.00015
 217        3PZ         0.00061  -0.00015   0.00015   0.00023   0.00034
 218        4XX         0.00001   0.00001   0.00003   0.00001   0.00002
 219        4YY         0.00002  -0.00002  -0.00003   0.00002   0.00002
 220        4ZZ         0.00002  -0.00002  -0.00002  -0.00001   0.00001
 221        4XY         0.00003  -0.00001   0.00001  -0.00001   0.00000
 222        4XZ         0.00002  -0.00001  -0.00001   0.00002   0.00000
 223        4YZ         0.00001  -0.00000  -0.00000  -0.00002   0.00001
 224 20  C  1S          0.00000  -0.00000  -0.00000  -0.00001  -0.00001
 225        2S         -0.00002  -0.00000  -0.00001  -0.00006  -0.00003
 226        2PX        -0.00002   0.00000  -0.00000  -0.00000   0.00000
 227        2PY         0.00002   0.00000  -0.00000  -0.00000  -0.00001
 228        2PZ         0.00001  -0.00000  -0.00000   0.00001   0.00000
 229        3S          0.00034   0.00002   0.00028   0.00078   0.00043
 230        3PX        -0.00022   0.00010   0.00023   0.00017  -0.00009
 231        3PY        -0.00002   0.00005   0.00016   0.00028   0.00009
 232        3PZ         0.00022   0.00010   0.00018   0.00029   0.00022
 233        4XX         0.00004  -0.00001  -0.00001  -0.00001  -0.00000
 234        4YY         0.00002  -0.00000  -0.00000  -0.00001  -0.00001
 235        4ZZ         0.00002   0.00001   0.00001  -0.00001  -0.00001
 236        4XY         0.00000  -0.00000   0.00000  -0.00000   0.00000
 237        4XZ        -0.00001   0.00000   0.00001  -0.00000  -0.00000
 238        4YZ         0.00000   0.00000   0.00001   0.00001   0.00000
 239 21  C  1S          0.00001  -0.00000  -0.00000  -0.00003   0.00000
 240        2S          0.00004  -0.00002  -0.00002  -0.00013   0.00001
 241        2PX        -0.00000  -0.00000   0.00000   0.00002  -0.00001
 242        2PY         0.00001  -0.00000  -0.00001  -0.00005   0.00001
 243        2PZ         0.00001  -0.00000  -0.00000   0.00000   0.00000
 244        3S         -0.00045   0.00025   0.00036   0.00111  -0.00009
 245        3PX         0.00023  -0.00002   0.00019   0.00027   0.00018
 246        3PY         0.00013  -0.00014  -0.00002   0.00023   0.00002
 247        3PZ         0.00021  -0.00019  -0.00020  -0.00035   0.00006
 248        4XX         0.00000  -0.00001  -0.00000  -0.00004   0.00000
 249        4YY         0.00001   0.00000  -0.00001  -0.00005   0.00000
 250        4ZZ         0.00001   0.00000   0.00001  -0.00004   0.00000
 251        4XY        -0.00000   0.00000   0.00000  -0.00000  -0.00000
 252        4XZ        -0.00001   0.00000  -0.00001   0.00001  -0.00001
 253        4YZ        -0.00001   0.00001   0.00001  -0.00000  -0.00000
 254 22  C  1S         -0.00000  -0.00000  -0.00000   0.00000   0.00000
 255        2S          0.00000  -0.00001  -0.00000   0.00003   0.00001
 256        2PX         0.00001   0.00000   0.00001   0.00001   0.00001
 257        2PY        -0.00000   0.00000   0.00000  -0.00000   0.00000
 258        2PZ         0.00000  -0.00000  -0.00001   0.00000   0.00000
 259        3S          0.00002  -0.00003  -0.00023  -0.00051  -0.00012
 260        3PX        -0.00007   0.00000   0.00007   0.00018   0.00001
 261        3PY        -0.00004   0.00001   0.00001  -0.00008  -0.00006
 262        3PZ        -0.00011  -0.00000  -0.00003  -0.00023  -0.00012
 263        4XX        -0.00001   0.00000   0.00000  -0.00001  -0.00000
 264        4YY        -0.00000  -0.00000  -0.00000   0.00000   0.00000
 265        4ZZ        -0.00000  -0.00000  -0.00000  -0.00000  -0.00000
 266        4XY        -0.00001   0.00000   0.00000   0.00000   0.00000
 267        4XZ         0.00000  -0.00000  -0.00000   0.00000   0.00000
 268        4YZ         0.00000   0.00000   0.00000  -0.00001  -0.00000
 269 23  H  1S         -0.00001   0.00000   0.00001   0.00000  -0.00001
 270        2S         -0.00000   0.00008   0.00013   0.00010   0.00004
 271        3PX         0.00000   0.00000  -0.00000   0.00000   0.00001
 272        3PY         0.00000   0.00000   0.00000  -0.00001  -0.00000
 273        3PZ        -0.00001   0.00000   0.00000   0.00000  -0.00000
 274 24  N  1S         -0.00000  -0.00000   0.00000   0.00001   0.00000
 275        2S         -0.00001  -0.00000   0.00001   0.00005   0.00001
 276        2PX         0.00000   0.00000   0.00000   0.00001   0.00000
 277        2PY        -0.00000  -0.00000   0.00000  -0.00001  -0.00001
 278        2PZ         0.00001  -0.00000   0.00000   0.00002   0.00001
 279        3S         -0.00000  -0.00002  -0.00023  -0.00061  -0.00011
 280        3PX         0.00002  -0.00003   0.00008   0.00026   0.00002
 281        3PY         0.00002   0.00002   0.00003   0.00009   0.00004
 282        3PZ        -0.00007   0.00004   0.00001   0.00001  -0.00002
 283        4XX        -0.00001   0.00000   0.00000  -0.00001   0.00000
 284        4YY        -0.00001  -0.00000   0.00000   0.00000  -0.00001
 285        4ZZ        -0.00001  -0.00000   0.00001   0.00000  -0.00000
 286        4XY        -0.00000   0.00000   0.00000   0.00000  -0.00000
 287        4XZ         0.00000  -0.00000  -0.00000  -0.00000   0.00000
 288        4YZ         0.00000  -0.00000   0.00000  -0.00001   0.00000
 289 25  H  1S          0.00003  -0.00000   0.00001  -0.00004   0.00003
 290        2S         -0.00010   0.00010   0.00005   0.00002  -0.00007
 291        3PX        -0.00001   0.00000  -0.00000  -0.00000  -0.00001
 292        3PY        -0.00000   0.00000   0.00000  -0.00002  -0.00000
 293        3PZ         0.00001  -0.00000   0.00000   0.00000   0.00001
 294 26  C  1S         -0.00000   0.00000  -0.00000  -0.00001  -0.00000
 295        2S         -0.00001   0.00000  -0.00001  -0.00001  -0.00001
 296        2PX         0.00001  -0.00000   0.00001   0.00001   0.00000
 297        2PY        -0.00000   0.00000   0.00000  -0.00001  -0.00000
 298        2PZ        -0.00000   0.00000   0.00000   0.00000  -0.00000
 299        3S          0.00006   0.00003   0.00006   0.00027   0.00013
 300        3PX        -0.00003   0.00000  -0.00007  -0.00022  -0.00006
 301        3PY        -0.00005   0.00000  -0.00003  -0.00007  -0.00004
 302        3PZ        -0.00005   0.00002  -0.00000  -0.00005  -0.00002
 303        4XX        -0.00001   0.00000  -0.00000  -0.00002  -0.00000
 304        4YY        -0.00001   0.00000  -0.00000  -0.00002  -0.00001
 305        4ZZ        -0.00000   0.00000  -0.00000  -0.00000   0.00000
 306        4XY         0.00000   0.00000   0.00000   0.00000   0.00000
 307        4XZ         0.00000  -0.00000  -0.00000  -0.00000   0.00000
 308        4YZ         0.00000   0.00000   0.00000   0.00000   0.00000
 309 27  H  1S         -0.00001   0.00000   0.00000  -0.00000  -0.00001
 310        2S         -0.00002   0.00001   0.00001  -0.00007  -0.00003
 311        3PX         0.00000  -0.00000  -0.00000  -0.00000   0.00000
 312        3PY        -0.00000  -0.00000  -0.00000   0.00000   0.00000
 313        3PZ         0.00000   0.00000   0.00000   0.00000   0.00000
 314 28  H  1S          0.00000  -0.00000   0.00000   0.00002   0.00000
 315        2S          0.00001  -0.00000   0.00003   0.00006   0.00002
 316        3PX        -0.00000  -0.00000  -0.00000  -0.00000  -0.00000
 317        3PY         0.00000   0.00000  -0.00000  -0.00000   0.00000
 318        3PZ         0.00000  -0.00000   0.00000   0.00000   0.00000
                           6         7         8         9        10
                           O         O         O         O         O
     Eigenvalues --   -19.19456 -19.19304 -19.14134 -19.14117 -14.34720
   1 1   C  1S         -0.00001  -0.00001  -0.00001  -0.00000  -0.00000
   2        2S         -0.00010   0.00016  -0.00009  -0.00006  -0.00001
   3        2PX        -0.00001   0.00010  -0.00002  -0.00003  -0.00000
   4        2PY         0.00003  -0.00012   0.00004   0.00001  -0.00000
   5        2PZ        -0.00001  -0.00030   0.00002  -0.00003  -0.00000
   6        3S          0.00058  -0.00122   0.00063   0.00035   0.00007
   7        3PX        -0.00032  -0.00061  -0.00016   0.00006   0.00003
   8        3PY        -0.00053   0.00057  -0.00049   0.00055  -0.00001
   9        3PZ         0.00012   0.00115   0.00004   0.00007  -0.00001
  10        4XX         0.00006   0.00004   0.00005  -0.00002  -0.00000
  11        4YY        -0.00003   0.00004  -0.00000   0.00006   0.00000
  12        4ZZ         0.00002   0.00020   0.00002   0.00003  -0.00000
  13        4XY         0.00002   0.00001  -0.00002   0.00000  -0.00000
  14        4XZ        -0.00003  -0.00003  -0.00001  -0.00001   0.00000
  15        4YZ         0.00001   0.00007  -0.00002   0.00002   0.00000
  16 2   O  1S          0.00011   0.99273  -0.00002   0.00001   0.00000
  17        2S          0.00004   0.02579  -0.00007   0.00006   0.00001
  18        2PX        -0.00002  -0.00060   0.00003   0.00001   0.00000
  19        2PY        -0.00000   0.00084   0.00001   0.00003   0.00000
  20        2PZ         0.00001   0.00020  -0.00001   0.00002   0.00000
  21        3S         -0.00018   0.01251   0.00018  -0.00014  -0.00004
  22        3PX         0.00010   0.00001  -0.00017  -0.00005  -0.00000
  23        3PY         0.00004   0.00008   0.00002  -0.00013  -0.00000
  24        3PZ        -0.00013   0.00059  -0.00002  -0.00012  -0.00002
  25        4XX         0.00003  -0.00811  -0.00001   0.00005   0.00001
  26        4YY         0.00003  -0.00813  -0.00007   0.00004   0.00001
  27        4ZZ         0.00001  -0.00817  -0.00007   0.00003   0.00000
  28        4XY         0.00001  -0.00003  -0.00001   0.00000  -0.00000
  29        4XZ         0.00002   0.00005  -0.00001  -0.00000  -0.00000
  30        4YZ         0.00000  -0.00006   0.00001  -0.00003  -0.00000
  31 3   H  1S          0.00002   0.00031  -0.00002   0.00004  -0.00000
  32        2S         -0.00018  -0.00123   0.00007  -0.00023   0.00000
  33        3PX        -0.00000  -0.00007  -0.00002  -0.00001  -0.00000
  34        3PY         0.00000   0.00009   0.00001   0.00001   0.00000
  35        3PZ        -0.00001  -0.00014   0.00001  -0.00002  -0.00000
  36 4   P  1S          0.00001   0.00000   0.00001  -0.00000  -0.00000
  37        2S          0.00002   0.00004  -0.00007  -0.00004  -0.00000
  38        2PX        -0.00001  -0.00001  -0.00000  -0.00000   0.00000
  39        2PY        -0.00000   0.00000  -0.00000  -0.00000  -0.00000
  40        2PZ        -0.00007  -0.00000   0.00001  -0.00001  -0.00000
  41        3S          0.00053   0.00029   0.00075  -0.00031  -0.00001
  42        3PX         0.00017   0.00014  -0.00006  -0.00000  -0.00001
  43        3PY         0.00003   0.00000   0.00010   0.00001   0.00000
  44        3PZ         0.00022  -0.00001  -0.00017   0.00009   0.00000
  45        4S         -0.00393  -0.00126  -0.00294   0.00118   0.00005
  46        4PX        -0.00094  -0.00051   0.00084   0.00032   0.00002
  47        4PY         0.00017   0.00030  -0.00169   0.00064   0.00001
  48        4PZ        -0.00195   0.00020   0.00160   0.00008   0.00001
  49        5XX        -0.00005   0.00001  -0.00017   0.00001  -0.00000
  50        5YY        -0.00009  -0.00004  -0.00022   0.00004   0.00000
  51        5ZZ         0.00027  -0.00003  -0.00020   0.00006  -0.00000
  52        5XY         0.00002  -0.00003  -0.00005   0.00003   0.00000
  53        5XZ        -0.00001  -0.00002   0.00008   0.00000  -0.00000
  54        5YZ         0.00009   0.00002  -0.00008   0.00001  -0.00000
  55 5   P  1S         -0.00000   0.00000  -0.00000   0.00002   0.00000
  56        2S         -0.00005   0.00002  -0.00004  -0.00004  -0.00000
  57        2PX         0.00000  -0.00001   0.00001  -0.00001   0.00000
  58        2PY        -0.00000   0.00000   0.00000   0.00001   0.00000
  59        2PZ        -0.00001  -0.00000   0.00001  -0.00001   0.00000
  60        3S         -0.00030   0.00013  -0.00029   0.00095   0.00000
  61        3PX        -0.00003   0.00004  -0.00005   0.00001  -0.00000
  62        3PY         0.00007  -0.00009  -0.00001  -0.00012  -0.00000
  63        3PZ         0.00006   0.00000  -0.00007   0.00021  -0.00000
  64        4S          0.00153  -0.00052   0.00116  -0.00383  -0.00001
  65        4PX        -0.00069  -0.00004  -0.00070   0.00086   0.00004
  66        4PY        -0.00054   0.00026  -0.00038   0.00057   0.00003
  67        4PZ         0.00019   0.00007   0.00008  -0.00213   0.00001
  68        5XX         0.00001   0.00002   0.00005  -0.00026   0.00000
  69        5YY         0.00002   0.00002   0.00003  -0.00023  -0.00000
  70        5ZZ         0.00008  -0.00003   0.00004  -0.00010  -0.00000
  71        5XY         0.00001  -0.00004   0.00003  -0.00003   0.00000
  72        5XZ        -0.00001  -0.00000   0.00004  -0.00004  -0.00001
  73        5YZ         0.00000   0.00002  -0.00001   0.00006  -0.00000
  74 6   O  1S         -0.00020  -0.00009   0.00008  -0.00002   0.00000
  75        2S         -0.00026  -0.00018   0.00008  -0.00004   0.00000
  76        2PX        -0.00001  -0.00003   0.00001   0.00000   0.00000
  77        2PY         0.00002  -0.00002  -0.00001  -0.00001   0.00000
  78        2PZ        -0.00001   0.00001   0.00004  -0.00000   0.00000
  79        3S          0.00154   0.00083  -0.00039   0.00017  -0.00001
  80        3PX         0.00017   0.00020  -0.00014  -0.00001  -0.00000
  81        3PY         0.00023   0.00023   0.00015   0.00002  -0.00000
  82        3PZ         0.00022   0.00002  -0.00028   0.00003  -0.00000
  83        4XX        -0.00014  -0.00013   0.00008  -0.00003   0.00000
  84        4YY        -0.00020  -0.00011   0.00012  -0.00004   0.00000
  85        4ZZ        -0.00026  -0.00015   0.00010  -0.00004   0.00000
  86        4XY         0.00001   0.00002   0.00001  -0.00000  -0.00000
  87        4XZ        -0.00000  -0.00003  -0.00001  -0.00001   0.00000
  88        4YZ        -0.00005  -0.00002   0.00000  -0.00000  -0.00000
  89 7   H  1S          0.00003   0.00002  -0.00008   0.00000  -0.00000
  90        2S         -0.00008   0.00012   0.00019   0.00008   0.00000
  91        3PX         0.00004   0.00002  -0.00002   0.00001  -0.00000
  92        3PY        -0.00002   0.00001   0.00003   0.00000   0.00000
  93        3PZ         0.00003   0.00003  -0.00003   0.00001  -0.00000
  94 8   O  1S          0.99265  -0.00011   0.00005   0.00000   0.00000
  95        2S          0.02562  -0.00001  -0.00000  -0.00008   0.00001
  96        2PX         0.00037  -0.00000   0.00004  -0.00001  -0.00000
  97        2PY         0.00059   0.00001  -0.00005  -0.00004   0.00000
  98        2PZ        -0.00054  -0.00001   0.00001  -0.00005  -0.00000
  99        3S          0.01359   0.00010  -0.00002   0.00039  -0.00003
 100        3PX         0.00017   0.00003  -0.00020   0.00014  -0.00000
 101        3PY        -0.00013  -0.00009   0.00031   0.00026   0.00000
 102        3PZ        -0.00041  -0.00002  -0.00024   0.00027   0.00001
 103        4XX        -0.00832  -0.00000   0.00002  -0.00003   0.00000
 104        4YY        -0.00832   0.00001   0.00002  -0.00002   0.00000
 105        4ZZ        -0.00840   0.00001   0.00007  -0.00009   0.00000
 106        4XY        -0.00001  -0.00001   0.00003   0.00003   0.00000
 107        4XZ        -0.00000   0.00001   0.00002   0.00000   0.00000
 108        4YZ         0.00000   0.00001  -0.00001  -0.00000   0.00000
 109 9   H  1S          0.00037   0.00003  -0.00008  -0.00008  -0.00000
 110        2S         -0.00136   0.00002   0.00009  -0.00089   0.00000
 111        3PX         0.00000  -0.00000   0.00001  -0.00009  -0.00000
 112        3PY         0.00005   0.00000   0.00001  -0.00007   0.00000
 113        3PZ         0.00005  -0.00001  -0.00001   0.00006  -0.00000
 114 10  O  1S          0.00050   0.00007   0.00000   0.00004  -0.00000
 115        2S          0.00015  -0.00009  -0.00008  -0.00006  -0.00001
 116        2PX        -0.00000  -0.00001   0.00006   0.00003  -0.00000
 117        2PY        -0.00001   0.00003  -0.00001  -0.00001   0.00000
 118        2PZ         0.00003   0.00002   0.00003  -0.00005  -0.00000
 119        3S         -0.00069   0.00034   0.00037   0.00028   0.00002
 120        3PX         0.00000   0.00009  -0.00036  -0.00009   0.00001
 121        3PY         0.00012  -0.00018  -0.00006  -0.00005  -0.00001
 122        3PZ        -0.00020  -0.00004  -0.00015   0.00043   0.00000
 123        4XX         0.00009  -0.00007  -0.00003  -0.00001  -0.00000
 124        4YY         0.00009  -0.00003  -0.00003  -0.00002  -0.00000
 125        4ZZ         0.00008  -0.00007  -0.00007   0.00003  -0.00000
 126        4XY        -0.00000  -0.00002   0.00004   0.00001  -0.00000
 127        4XZ         0.00000   0.00000  -0.00001   0.00003   0.00000
 128        4YZ         0.00001   0.00001   0.00001  -0.00002  -0.00000
 129 11  H  1S          0.00004  -0.00005  -0.00009  -0.00009  -0.00000
 130        2S         -0.00010   0.00014  -0.00089   0.00017   0.00001
 131        3PX         0.00000   0.00003   0.00003  -0.00000   0.00000
 132        3PY         0.00001   0.00001   0.00012  -0.00001   0.00000
 133        3PZ         0.00000   0.00000  -0.00002   0.00002   0.00000
 134 12  O  1S         -0.00005  -0.00001  -0.00002   0.00006  -0.00001
 135        2S         -0.00003  -0.00006  -0.00004   0.00001  -0.00003
 136        2PX         0.00000   0.00001   0.00001  -0.00000  -0.00001
 137        2PY        -0.00001   0.00002  -0.00001  -0.00000  -0.00000
 138        2PZ         0.00000   0.00000  -0.00000  -0.00005  -0.00000
 139        3S          0.00016   0.00024   0.00020  -0.00007   0.00016
 140        3PX        -0.00001  -0.00005  -0.00007  -0.00008   0.00007
 141        3PY         0.00006  -0.00010   0.00003  -0.00006  -0.00001
 142        3PZ        -0.00002  -0.00001  -0.00002   0.00038   0.00005
 143        4XX        -0.00004  -0.00004  -0.00005   0.00009  -0.00001
 144        4YY        -0.00003  -0.00002  -0.00003   0.00004  -0.00003
 145        4ZZ        -0.00003  -0.00004  -0.00004   0.00004  -0.00002
 146        4XY        -0.00000   0.00001   0.00000   0.00000  -0.00000
 147        4XZ        -0.00001   0.00001  -0.00001  -0.00001   0.00002
 148        4YZ         0.00000   0.00001   0.00000  -0.00003  -0.00000
 149 13  H  1S          0.00001  -0.00001   0.00001  -0.00009  -0.00000
 150        2S          0.00004   0.00003   0.00012   0.00016  -0.00019
 151        3PX        -0.00001  -0.00000  -0.00001  -0.00001   0.00002
 152        3PY         0.00000   0.00001  -0.00000  -0.00001   0.00000
 153        3PZ        -0.00001   0.00000  -0.00001   0.00004   0.00002
 154 14  O  1S         -0.00001   0.00000  -0.00351   0.99268  -0.00000
 155        2S          0.00005   0.00000  -0.00002   0.02549  -0.00000
 156        2PX         0.00001  -0.00000   0.00001   0.00021   0.00000
 157        2PY         0.00001  -0.00000   0.00000  -0.00015   0.00000
 158        2PZ        -0.00004  -0.00001   0.00001  -0.00080   0.00000
 159        3S         -0.00036   0.00002  -0.00049   0.01337   0.00000
 160        3PX        -0.00014   0.00001   0.00002  -0.00005  -0.00000
 161        3PY        -0.00010  -0.00000   0.00004  -0.00039  -0.00000
 162        3PZ         0.00032   0.00000   0.00003  -0.00041  -0.00000
 163        4XX         0.00005   0.00002   0.00009  -0.00830   0.00000
 164        4YY         0.00006  -0.00000   0.00006  -0.00830  -0.00000
 165        4ZZ        -0.00001   0.00001   0.00009  -0.00831   0.00000
 166        4XY         0.00004   0.00000   0.00002   0.00002  -0.00000
 167        4XZ        -0.00002   0.00000  -0.00000  -0.00001  -0.00000
 168        4YZ        -0.00002  -0.00000   0.00001  -0.00000   0.00000
 169 15  O  1S         -0.00004  -0.00002   0.99269   0.00355   0.00000
 170        2S          0.00001  -0.00011   0.02552   0.00016   0.00000
 171        2PX         0.00002  -0.00003   0.00050  -0.00000   0.00000
 172        2PY        -0.00002   0.00002  -0.00046  -0.00001   0.00000
 173        2PZ        -0.00003   0.00002   0.00050  -0.00001   0.00000
 174        3S         -0.00001   0.00046   0.01317  -0.00037  -0.00000
 175        3PX         0.00004   0.00021   0.00046  -0.00003  -0.00000
 176        3PY         0.00000  -0.00014   0.00000  -0.00001  -0.00000
 177        3PZ         0.00034  -0.00005   0.00020  -0.00001  -0.00000
 178        4XX         0.00003  -0.00004  -0.00827   0.00001   0.00000
 179        4YY         0.00003  -0.00007  -0.00826   0.00003   0.00000
 180        4ZZ         0.00007  -0.00008  -0.00828   0.00001  -0.00000
 181        4XY         0.00001  -0.00003   0.00002   0.00001   0.00000
 182        4XZ         0.00003  -0.00001  -0.00000   0.00002   0.00000
 183        4YZ        -0.00004   0.00000  -0.00001  -0.00000  -0.00000
 184 16  C  1S          0.00001   0.00001   0.00001  -0.00003   0.00000
 185        2S          0.00003   0.00015   0.00003  -0.00013   0.00000
 186        2PX         0.00008  -0.00002  -0.00006  -0.00000   0.00001
 187        2PY         0.00003   0.00002  -0.00000  -0.00006   0.00000
 188        2PZ         0.00000  -0.00007   0.00001   0.00002  -0.00000
 189        3S         -0.00102  -0.00042   0.00020   0.00071  -0.00009
 190        3PX        -0.00111  -0.00061   0.00101   0.00013  -0.00000
 191        3PY        -0.00025  -0.00006   0.00002   0.00045  -0.00001
 192        3PZ         0.00031   0.00029   0.00018  -0.00019   0.00007
 193        4XX        -0.00004  -0.00001   0.00004  -0.00003   0.00002
 194        4YY         0.00001   0.00002   0.00002  -0.00004   0.00001
 195        4ZZ         0.00002  -0.00006   0.00001  -0.00006  -0.00000
 196        4XY        -0.00002   0.00001   0.00003  -0.00002   0.00000
 197        4XZ        -0.00001   0.00000  -0.00003   0.00000  -0.00001
 198        4YZ         0.00000   0.00000   0.00001  -0.00000  -0.00000
 199 17  H  1S         -0.00005   0.00004   0.00005   0.00001   0.00000
 200        2S          0.00010   0.00007  -0.00007   0.00019  -0.00001
 201        3PX         0.00003  -0.00001  -0.00003  -0.00000  -0.00001
 202        3PY         0.00000   0.00000  -0.00001   0.00002  -0.00000
 203        3PZ        -0.00001  -0.00005  -0.00000   0.00002  -0.00000
 204 18  H  1S         -0.00001  -0.00002   0.00006  -0.00001   0.00000
 205        2S          0.00000  -0.00015  -0.00023   0.00008  -0.00005
 206        3PX         0.00001   0.00004  -0.00003  -0.00002  -0.00000
 207        3PY         0.00002  -0.00000  -0.00001   0.00000  -0.00000
 208        3PZ         0.00002   0.00001   0.00001  -0.00001   0.00000
 209 19  C  1S         -0.00001  -0.00003   0.00000  -0.00001   0.00001
 210        2S         -0.00007  -0.00018   0.00003  -0.00000   0.00008
 211        2PX         0.00002   0.00004  -0.00001   0.00001  -0.00004
 212        2PY         0.00001  -0.00001  -0.00001  -0.00003  -0.00002
 213        2PZ         0.00001  -0.00002   0.00002  -0.00002  -0.00001
 214        3S          0.00071   0.00163  -0.00041  -0.00011  -0.00097
 215        3PX        -0.00119  -0.00059   0.00073   0.00040  -0.00038
 216        3PY        -0.00030  -0.00029   0.00022   0.00012  -0.00027
 217        3PZ         0.00004  -0.00070  -0.00031   0.00012  -0.00029
 218        4XX         0.00004   0.00000  -0.00002  -0.00003  -0.00007
 219        4YY        -0.00002  -0.00005   0.00000  -0.00001  -0.00002
 220        4ZZ        -0.00002   0.00000   0.00000  -0.00003   0.00001
 221        4XY         0.00001   0.00001  -0.00002   0.00002  -0.00005
 222        4XZ        -0.00001   0.00001   0.00001   0.00002  -0.00004
 223        4YZ        -0.00000   0.00001   0.00000  -0.00000  -0.00000
 224 20  C  1S         -0.00000   0.00001   0.00000   0.00001  -0.00001
 225        2S         -0.00002  -0.00002   0.00002   0.00001  -0.00001
 226        2PX         0.00000  -0.00009   0.00001  -0.00001  -0.00001
 227        2PY        -0.00000   0.00005  -0.00000   0.00002  -0.00001
 228        2PZ        -0.00000  -0.00001  -0.00000   0.00001  -0.00002
 229        3S          0.00028   0.00016  -0.00042  -0.00012   0.00023
 230        3PX         0.00022   0.00117  -0.00018  -0.00010   0.00019
 231        3PY         0.00016  -0.00027  -0.00017  -0.00010   0.00020
 232        3PZ         0.00019  -0.00068  -0.00018  -0.00006   0.00026
 233        4XX        -0.00002   0.00007  -0.00000   0.00002  -0.00003
 234        4YY        -0.00001   0.00003  -0.00000   0.00001  -0.00001
 235        4ZZ         0.00000   0.00002  -0.00000   0.00002  -0.00002
 236        4XY         0.00000   0.00004  -0.00000  -0.00000   0.00000
 237        4XZ         0.00001   0.00004  -0.00000  -0.00001   0.00001
 238        4YZ         0.00001  -0.00001  -0.00001  -0.00000   0.00000
 239 21  C  1S         -0.00000  -0.00000   0.00000  -0.00001   0.00003
 240        2S         -0.00002   0.00000   0.00001  -0.00001   0.00032
 241        2PX        -0.00001   0.00001  -0.00001   0.00005   0.00017
 242        2PY         0.00000  -0.00000   0.00000  -0.00003   0.00005
 243        2PZ        -0.00000   0.00001  -0.00000   0.00001   0.00002
 244        3S          0.00040   0.00013  -0.00019  -0.00015   0.00054
 245        3PX         0.00022  -0.00014  -0.00016  -0.00024  -0.00047
 246        3PY        -0.00012  -0.00015  -0.00003   0.00017  -0.00038
 247        3PZ        -0.00030  -0.00010   0.00018   0.00012  -0.00056
 248        4XX         0.00000  -0.00002   0.00001  -0.00004  -0.00028
 249        4YY         0.00000   0.00000   0.00001  -0.00003  -0.00004
 250        4ZZ         0.00002  -0.00000  -0.00001  -0.00002   0.00003
 251        4XY         0.00000  -0.00001   0.00000  -0.00001  -0.00006
 252        4XZ        -0.00001  -0.00001   0.00000   0.00001   0.00006
 253        4YZ         0.00001   0.00000  -0.00000   0.00000   0.00006
 254 22  C  1S         -0.00000   0.00000  -0.00000  -0.00000   0.00000
 255        2S         -0.00001   0.00004  -0.00001  -0.00000   0.00007
[...]
   6         O               -19.194564         29.024357
   7         O               -19.193039         29.027307
   8         O               -19.141344         29.026867
   9         O               -19.141171         29.026545
  10         O               -14.347200         21.961070
  11         O               -10.288507         15.890582
  12         O               -10.238426         15.881450
  13         O               -10.237713         15.880851
  14         O               -10.227189         15.885319
  15         O               -10.225551         15.881905
  16         O               -10.221660         15.880847
  17         O               -10.215091         15.880803
  18         O                -6.693289         15.693401
  19         O                -6.692839         15.693232
  20         O                -4.857610         14.706264
  21         O                -4.857199         14.705749
  22         O                -4.856415         14.704619
  23         O                -4.855901         14.704560
  24         O                -4.854448         14.711795
  25         O                -4.853902         14.711337
  26         O                -1.106454          2.480848
  27         O                -1.098039          2.587515
  28         O                -1.064144          2.552320
  29         O                -1.052989          2.709027
  30         O                -1.049304          2.730879
  31         O                -0.990741          2.846361
  32         O                -0.986193          2.886738
  33         O                -0.956609          1.822650
  34         O                -0.841178          1.623068
  35         O                -0.800127          1.648406
  36         O                -0.764149          1.751495
  37         O                -0.691540          1.860470
  38         O                -0.661257          2.167467
  39         O                -0.647099          1.533889
  40         O                -0.642994          1.933651
  41         O                -0.616853          1.617289
  42         O                -0.577095          1.730116
  43         O                -0.549808          1.822241
  44         O                -0.538609          2.092787
  45         O                -0.535621          1.356489
  46         O                -0.525809          1.928462
  47         O                -0.503406          1.498862
  48         O                -0.486746          1.880269
  49         O                -0.479858          1.762795
  50         O                -0.475504          2.186672
  51         O                -0.461936          1.621675
  52         O                -0.454605          2.029271
  53         O                -0.437791          2.219744
  54         O                -0.429445          1.511090
  55         O                -0.420991          1.356204
  56         O                -0.418840          1.913821
  57         O                -0.412459          1.437347
  58         O                -0.410102          1.942888
  59         O                -0.399919          2.189123
  60         O                -0.398720          2.100712
  61         O                -0.383805          1.928018
  62         O                -0.373819          2.069850
  63         O                -0.372632          1.981710
  64         O                -0.372014          2.192785
  65         O                -0.353769          2.186389
  66         O                -0.337611          2.297954
  67         O                -0.322108          2.305707
  68         O                -0.320144          2.315314
  69         O                -0.316203          2.204591
  70         O                -0.299145          1.292390
  71         O                -0.282887          2.277744
  72         O                -0.273989          1.289444
  73         O                -0.267916          1.906302
  74         V                -0.042782          1.551860
  75         V                -0.032158          1.432377
  76         V                 0.008658          2.031541
  77         V                 0.041069          1.919945
  78         V                 0.044323          2.083977
  79         V                 0.052906          1.816823
  80         V                 0.078910          1.507852
  81         V                 0.094167          1.386179
  82         V                 0.105409          2.206075
  83         V                 0.106907          1.863930
  84         V                 0.113846          2.209090
  85         V                 0.115460          1.583483
  86         V                 0.119566          2.236625
  87         V                 0.122064          1.628123
  88         V                 0.138344          2.060578
  89         V                 0.149195          1.317974
  90         V                 0.154467          1.729626
  91         V                 0.160028          1.581226
  92         V                 0.171944          1.271056
  93         V                 0.180942          1.577808
  94         V                 0.193320          2.419143
  95         V                 0.206482          2.299250
  96         V                 0.223600          2.059456
  97         V                 0.229554          2.083048
  98         V                 0.241528          2.015422
  99         V                 0.251653          2.073642
 100         V                 0.292365          1.856227
 101         V                 0.293128          1.992621
 102         V                 0.304983          1.852477
 103         V                 0.319057          1.930404
 104         V                 0.346776          2.106021
 105         V                 0.351844          2.004630
 106         V                 0.387301          1.972178
 107         V                 0.391045          2.262452
 108         V                 0.397848          2.134943
 109         V                 0.421054          2.004551
 110         V                 0.434312          1.800743
 111         V                 0.439182          2.280251
 112         V                 0.454962          2.110062
 113         V                 0.487052          2.364892
 114         V                 0.514343          2.103363
 115         V                 0.528122          2.505129
 116         V                 0.541107          2.257776
 117         V                 0.547045          2.428721
 118         V                 0.563280          2.200915
 119         V                 0.569099          2.290746
 120         V                 0.572640          2.180755
 121         V                 0.582970          1.870050
 122         V                 0.591174          2.139583
 123         V                 0.596511          2.280982
 124         V                 0.627436          2.891132
 125         V                 0.634829          2.277449
 126         V                 0.645628          2.402658
 127         V                 0.649960          2.457359
 128         V                 0.675058          2.388699
 129         V                 0.680310          2.440364
 130         V                 0.690850          2.257101
 131         V                 0.719786          2.526653
 132         V                 0.728289          2.612937
 133         V                 0.742175          2.346404
 134         V                 0.759615          2.683037
 135         V                 0.772989          2.772372
 136         V                 0.777622          2.601188
 137         V                 0.788401          2.445088
 138         V                 0.799932          2.700127
 139         V                 0.805091          2.627964
 140         V                 0.805797          2.522141
 141         V                 0.817647          2.526795
 142         V                 0.830969          2.458802
 143         V                 0.838674          2.535582
 144         V                 0.851074          2.584930
 145         V                 0.858435          2.478614
 146         V                 0.875988          2.619364
 147         V                 0.881750          2.774032
 148         V                 0.891950          2.831001
 149         V                 0.902773          2.644090
 150         V                 0.909108          2.825181
 151         V                 0.922571          2.913934
 152         V                 0.947934          2.792567
 153         V                 0.955261          3.072093
 154         V                 0.956624          2.806350
 155         V                 0.968580          2.937469
 156         V                 0.974365          2.919667
 157         V                 0.980223          3.120145
 158         V                 0.988558          3.095659
 159         V                 1.006263          3.149810
 160         V                 1.009570          3.109968
 161         V                 1.020676          3.021979
 162         V                 1.034823          2.731915
 163         V                 1.038260          3.055984
 164         V                 1.049981          3.303274
 165         V                 1.057398          2.953894
 166         V                 1.060802          3.115823
 167         V                 1.075783          2.689391
 168         V                 1.092765          2.909801
 169         V                 1.112011          2.925495
 170         V                 1.130309          3.498662
 171         V                 1.137453          3.379753
 172         V                 1.149096          2.819276
 173         V                 1.153293          2.833167
 174         V                 1.171469          3.260872
 175         V                 1.198838          3.155126
 176         V                 1.215088          3.224392
 177         V                 1.228215          2.871109
 178         V                 1.242460          2.793803
 179         V                 1.248458          2.914463
 180         V                 1.262332          2.920249
 181         V                 1.269156          2.992366
 182         V                 1.304917          3.119746
 183         V                 1.326607          3.009123
 184         V                 1.330806          2.491306
 185         V                 1.347645          2.756817
 186         V                 1.376248          2.645546
 187         V                 1.387449          2.555785
 188         V                 1.411610          2.618484
 189         V                 1.423831          2.606813
 190         V                 1.436749          2.662263
 191         V                 1.455155          2.723475
 192         V                 1.461577          2.649029
 193         V                 1.470631          2.698989
 194         V                 1.505755          2.762487
 195         V                 1.526674          2.700800
 196         V                 1.542850          2.721473
 197         V                 1.559622          2.689201
 198         V                 1.570854          2.778091
 199         V                 1.573365          2.740936
 200         V                 1.590360          2.794562
 201         V                 1.595356          2.789997
 202         V                 1.619183          2.799997
 203         V                 1.633849          2.838311
 204         V                 1.648566          2.838277
 205         V                 1.681063          2.913533
 206         V                 1.690175          2.847159
 207         V                 1.723950          2.895227
 208         V                 1.739097          3.007845
 209         V                 1.747311          2.937990
 210         V                 1.753808          3.044114
 211         V                 1.771707          3.101663
 212         V                 1.776292          3.097149
 213         V                 1.799616          3.147303
 214         V                 1.810125          3.084610
 215         V                 1.816647          3.092493
 216         V                 1.827865          3.190603
 217         V                 1.832211          3.146495
 218         V                 1.852376          3.159579
 219         V                 1.869743          3.272299
 220         V                 1.883014          3.169074
 221         V                 1.889188          3.303156
 222         V                 1.897496          3.160871
 223         V                 1.918691          3.220922
 224         V                 1.928067          3.307057
 225         V                 1.938614          3.308575
 226         V                 1.957847          3.134895
 227         V                 1.964577          3.205697
 228         V                 1.971846          3.272097
 229         V                 1.993519          3.315003
 230         V                 2.014538          3.670734
 231         V                 2.049455          3.439980
 232         V                 2.068460          3.450596
 233         V                 2.073581          3.378629
 234         V                 2.086924          3.409885
 235         V                 2.099119          3.382189
 236         V                 2.115438          3.404141
 237         V                 2.147699          3.415678
 238         V                 2.186959          3.528420
 239         V                 2.199633          3.485790
 240         V                 2.203442          3.547823
 241         V                 2.236956          3.570416
 242         V                 2.261160          3.374402
 243         V                 2.274509          3.550626
 244         V                 2.308063          3.557209
 245         V                 2.314363          3.679711
 246         V                 2.317019          3.639997
 247         V                 2.332857          3.654538
 248         V                 2.337198          3.754797
 249         V                 2.358223          3.756228
 250         V                 2.373413          3.443219
 251         V                 2.375861          3.712704
 252         V                 2.384216          3.782840
 253         V                 2.399454          3.814208
 254         V                 2.415016          3.795164
 255         V                 2.433993          3.873054
 256         V                 2.456369          3.782671
 257         V                 2.470593          4.029406
 258         V                 2.484917          4.304152
 259         V                 2.496550          4.456527
 260         V                 2.501906          3.961349
 261         V                 2.511584          3.651700
 262         V                 2.530717          3.620463
 263         V                 2.576236          3.867195
 264         V                 2.588627          3.669476
 265         V                 2.595356          3.704552
 266         V                 2.605725          3.686422
 267         V                 2.606030          3.905407
 268         V                 2.615855          3.770283
 269         V                 2.620149          4.108644
 270         V                 2.633041          3.802948
 271         V                 2.652880          3.908529
 272         V                 2.667082          4.107760
 273         V                 2.668280          3.944586
 274         V                 2.686155          3.999016
 275         V                 2.698404          4.133267
 276         V                 2.714242          4.036189
 277         V                 2.719857          4.221843
 278         V                 2.767798          4.095511
 279         V                 2.772694          4.347803
 280         V                 2.790327          4.277039
 281         V                 2.812770          4.461237
 282         V                 2.834533          4.484096
 283         V                 2.840984          4.488279
 284         V                 2.861577          4.344962
 285         V                 2.898142          4.162617
 286         V                 2.980741          4.513695
 287         V                 3.004330          4.699165
 288         V                 3.054510          4.666728
 289         V                 3.187656          5.084972
 290         V                 3.219639          4.921189
 291         V                 3.256041          5.002979
 292         V                 3.287207          5.101668
 293         V                 3.334191          6.381237
 294         V                 3.376918          5.230543
 295         V                 3.385860          6.221956
 296         V                 3.389714          6.467036
 297         V                 3.428379          6.044782
 298         V                 3.435057          5.483476
 299         V                 3.439751          5.562649
 300         V                 3.474055          5.361845
 301         V                 3.515603         10.183314
 302         V                 3.522257          9.760697
 303         V                 3.781433          6.237781
 304         V                 3.799115          9.167771
 305         V                 3.863408          9.901167
 306         V                 3.988475         10.700007
 307         V                 4.077257         10.111133
 308         V                 4.107303         10.191883
 309         V                 4.119797         10.747535
 310         V                 4.191830         10.163447
 311         V                 4.199454         10.343494
 312         V                 4.260760         10.519297
 313         V                 4.275401         10.800234
 314         V                 4.318862         10.227385
 315         V                 4.364111         10.528629
 316         V                 4.469881         10.161607
 317         V                 4.633582         10.498676
 318         V                 4.757100         10.212060
 Total kinetic energy from orbitals= 1.527250543721D+03

 Test job not archived.
 1\1\GINC-BATAGIN2\SP\RB3LYP\6-31G(d,p)\C7H11N1O7P2\ORISON\22-Jan-2021\
 0\\#t B3LYP/6-31G(d,p) # Gfinput IOP(6/7=3) Pop=hirshfeld Density Test
  # Units(Ang,Deg)\\risendronate-opt-g09.log\\0,1\C,0,0.61352,0.3651,-0
 .31802\O,0,0.43733,0.71687,-1.68379\H,0,0.90785,0.06818,-2.23002\P,0,2
 .39156,0.69457,0.16221\P,0,0.4717,-1.47913,-0.04612\O,0,2.6424,2.28176
 ,0.08758\H,0,3.16723,2.5059,-0.69487\O,0,2.47343,0.44675,1.73759\H,0,2
 .03466,-0.41641,1.94181\O,0,1.39449,-2.07287,-1.21477\H,0,2.29041,-1.6
 5614,-1.1569\O,0,-0.9389,-2.04141,-0.55502\H,0,-1.64571,-1.9056,0.0961
 \O,0,0.84212,-1.75517,1.37924\O,0,3.26924,-0.11979,-0.74201\C,0,-0.367
 83,1.20581,0.52548\H,0,-0.17405,2.25311,0.26867\H,0,-0.11361,1.08176,1
 .58103\C,0,-1.82642,0.87339,0.30767\C,0,-2.51331,1.23913,-0.85696\C,0,
 -2.54452,0.15829,1.27656\C,0,-3.8479,0.8712,-0.99945\H,0,-2.00004,1.79
 063,-1.63756\N,0,-3.82376,-0.21985,1.14629\H,0,-2.05591,-0.12731,2.208
 67\C,0,-4.45543,0.13736,0.0217\H,0,-4.40953,1.13947,-1.88858\H,0,-5.49
 345,-0.17694,-0.06634\\Version=EM64L-G16RevA.03\State=1-A\HF=-1537.556
 0409\RMSD=4.615e-09\Dipole=-0.6353272,1.2967341,-1.0160468\Quadrupole=
 0.5640865,-0.7503327,0.1862462,2.4087755,1.2639951,-2.8785661\PG=C01 [
 X(C7H11N1O7P2)]\\@


 "THE TIME HAS COME", THE WALRUS SAID,
 "TO TALK OF MANY THINGS,
 OF SHOES AND SHIPS AND SEALING WAX,
 OF CABBAGES AND KINGS,
 AND WHY THE SEA IS BOILING HOT,
 AND WHETHER PIGS HAVE WINGS."
 Job cpu time:       0 days  0 hours  8 minutes 51.2 seconds.
 Elapsed time:       0 days  0 hours  1 minutes  6.4 seconds.
 File lengths (MBytes):  RWF=     59 Int=      0 D2E=      0 Chk=      7 Scr=      1
 Normal termination of Gaussian 16 at Fri Jan 22 02:36:48 2021.
