 Entering Gaussian System, Link 0=g16
 Input=risendronate_cation_scf_g09.com
 Output=risendronate_cation_scf_g09.log
 Initial command:
 /usr/local//g16/l1.exe "/home/orison/scrgauss/Gau-22565.inp" -scrdir="/home/orison/scrgauss/"
 Entering Link 1 = /usr/local//g16/l1.exe PID=     22567.
  
 Copyright (c) 1988,1990,1992,1993,1995,1998,2003,2009,2016,
            Gaussian, Inc.  All Rights Reserved.
  
 This is part of the Gaussian(R) 16 program.  It is based on
 the Gaussian(R) 09 system (copyright 2009, Gaussian, Inc.),
 the Gaussian(R) 03 system (copyright 2003, Gaussian, Inc.),
 the Gaussian(R) 98 system (copyright 1998, Gaussian, Inc.),
 the Gaussian(R) 94 system (copyright 1995, Gaussian, Inc.),
 the Gaussian 92(TM) system (copyright 1992, Gaussian, Inc.),
 the Gaussian 90(TM) system (copyright 1990, Gaussian, Inc.),
 the Gaussian 88(TM) system (copyright 1988, Gaussian, Inc.),
 the Gaussian 86(TM) system (copyright 1986, Carnegie Mellon
 University), and the Gaussian 82(TM) system (copyright 1983,
 Carnegie Mellon University). Gaussian is a federally registered
 trademark of Gaussian, Inc.
  
 This software contains proprietary and confidential information,
 including trade secrets, belonging to Gaussian, Inc.
  
 This software is provided under written license and may be
 used, copied, transmitted, or stored only in accord with that
 written license.
  
 The following legend is applicable only to US Government
 contracts under FAR:
  
                    RESTRICTED RIGHTS LEGEND
  
 Use, reproduction and disclosure by the US Government is
 subject to restrictions as set forth in subparagraphs (a)
 and (c) of the Commercial Computer Software - Restricted
 Rights clause in FAR 52.227-19.
  
 Gaussian, Inc.
 340 Quinnipiac St., Bldg. 40, Wallingford CT 06492
  
  
 ---------------------------------------------------------------
 Warning -- This program may not be used in any manner that
 competes with the business of Gaussian, Inc. or will provide
 assistance to any competitor of Gaussian, Inc.  The licensee
 of this program is prohibited from giving any competitor of
 Gaussian, Inc. access to this program.  By using this program,
 the user acknowledges that Gaussian, Inc. is engaged in the
 business of creating and licensing software in the field of
 computational chemistry and represents and warrants to the
 licensee that it is not a competitor of Gaussian, Inc. and that
 it will not use this program in any manner prohibited above.
 ---------------------------------------------------------------
  

 Cite this work as:
 Gaussian 16, Revision A.03,
 M. J. Frisch, G. W. Trucks, H. B. Schlegel, G. E. Scuseria, 
 M. A. Robb, J. R. Cheeseman, G. Scalmani, V. Barone, 
 G. A. Petersson, H. Nakatsuji, X. Li, M. Caricato, A. V. Marenich, 
 J. Bloino, B. G. Janesko, R. Gomperts, B. Mennucci, H. P. Hratchian, 
 J. V. Ortiz, A. F. Izmaylov, J. L. Sonnenberg, D. Williams-Young, 
 F. Ding, F. Lipparini, F. Egidi, J. Goings, B. Peng, A. Petrone, 
 T. Henderson, D. Ranasinghe, V. G. Zakrzewski, J. Gao, N. Rega, 
 G. Zheng, W. Liang, M. Hada, M. Ehara, K. Toyota, R. Fukuda, 
 J. Hasegawa, M. Ishida, T. Nakajima, Y. Honda, O. Kitao, H. Nakai, 
 T. Vreven, K. Throssell, J. A. Montgomery, Jr., J. E. Peralta, 
 F. Ogliaro, M. J. Bearpark, J. J. Heyd, E. N. Brothers, K. N. Kudin, 
 V. N. Staroverov, T. A. Keith, R. Kobayashi, J. Normand, 
 K. Raghavachari, A. P. Rendell, J. C. Burant, S. S. Iyengar, 
 J. Tomasi, M. Cossi, J. M. Millam, M. Klene, C. Adamo, R. Cammi, 
 J. W. Ochterski, R. L. Martin, K. Morokuma, O. Farkas, 
 J. B. Foresman, and D. J. Fox, Gaussian, Inc., Wallingford CT, 2016.
 
 ******************************************
 Gaussian 16:  EM64L-G16RevA.03 25-Dec-2016
                22-Jan-2021 
 ******************************************
 %nproc=8
 Will use up to    8 processors via shared memory.
 %Mem=4GB
 ----------------------------------------------------------------------
 #t B3LYP/6-31G(d,p) # Gfinput IOP(6/7=3) Pop=hirshfeld Density Test # 
 Units(Ang,Deg)
 ----------------------------------------------------------------------
 ------------------------
 risendronate-opt-g09.log
 ------------------------
 Symbolic Z-matrix:
 Charge =  1 Multiplicity = 2
 C                     0.61352   0.3651   -0.31802 
 O                     0.43733   0.71687  -1.68379 
 H                     0.90785   0.06818  -2.23002 
 P                     2.39156   0.69457   0.16221 
 P                     0.4717   -1.47913  -0.04612 
 O                     2.6424    2.28176   0.08758 
 H                     3.16723   2.5059   -0.69487 
 O                     2.47343   0.44675   1.73759 
 H                     2.03466  -0.41641   1.94181 
 O                     1.39449  -2.07287  -1.21477 
 H                     2.29041  -1.65614  -1.1569 
 O                    -0.9389   -2.04141  -0.55502 
 H                    -1.64571  -1.9056    0.0961 
 O                     0.84212  -1.75517   1.37924 
 O                     3.26924  -0.11979  -0.74201 
 C                    -0.36783   1.20581   0.52548 
 H                    -0.17405   2.25311   0.26867 
 H                    -0.11361   1.08176   1.58103 
 C                    -1.82642   0.87339   0.30767 
 C                    -2.51331   1.23913  -0.85696 
 C                    -2.54452   0.15829   1.27656 
 C                    -3.8479    0.8712   -0.99945 
 H                    -2.00004   1.79063  -1.63756 
 N                    -3.82376  -0.21985   1.14629 
 H                    -2.05591  -0.12731   2.20867 
 C                    -4.45543   0.13736   0.0217 
 H                    -4.40953   1.13947  -1.88858 
 H                    -5.49345  -0.17694  -0.06634 
 
                    Distance matrix (angstroms):
                    1          2          3          4          5
     1  C    0.000000
     2  O    1.421307   0.000000
     3  H    1.957175   0.969822   0.000000
     4  P    1.870988   2.688350   2.883838   0.000000
     5  P    1.869553   2.739628   2.711792   2.907617   0.000000
     6  O    2.820364   3.232486   3.644156   1.608621   4.344434
     7  H    3.353576   3.410417   3.661142   2.148759   4.854608
     8  O    2.773349   3.990552   4.282089   1.596853   3.301145
     9  H    2.781587   4.120772   4.348413   2.128058   2.743006
    10  O    2.712521   2.986433   2.419018   3.247914   1.603063
    11  H    2.757008   3.056582   2.456896   2.697428   2.138427
    12  O    2.873581   3.282718   3.265958   4.369436   1.601540
    13  H    3.229813   3.792679   3.978355   4.802583   2.164608
    14  O    2.725526   3.956891   4.044216   3.143748   1.498352
    15  O    2.732716   3.099462   2.797440   1.500373   3.187209
    16  C    1.543157   2.401712   3.242583   2.829764   2.870617
    17  H    2.128157   2.558499   3.491114   3.003787   3.800750
    18  H    2.156087   3.331025   4.073675   2.904969   3.090042
    19  C    2.569660   3.019102   3.816342   4.224274   3.307699
    20  C    3.291117   3.108485   3.867913   5.039147   4.117849
    21  C    3.543822   4.238763   4.921695   5.088640   3.678071
    22  C    4.541448   4.342273   4.977580   6.349135   5.009175
    23  H    3.256381   2.663807   3.431278   4.871003   4.396989
    24  N    4.709121   5.200354   5.819842   6.358835   4.632343
    25  H    3.708435   4.698950   5.340792   4.964219   3.646959
    26  C    5.085423   5.213792   5.817199   6.871062   5.185967
    27  H    5.319524   4.869557   5.434958   7.117479   5.837648
    28  H    6.136142   6.212020   6.761526   7.936318   6.105663
                    6          7          8          9         10
     6  O    0.000000
     7  H    0.968459   0.000000
     8  O    2.473529   3.261644   0.000000
     9  H    3.329811   4.095692   0.989581   0.000000
    10  O    4.713406   4.937412   4.028527   3.621833   0.000000
    11  H    4.144838   4.278418   3.582417   3.347289   0.989791
    12  O    5.650526   6.128449   4.805309   4.209138   2.425071
    13  H    5.993492   6.576576   5.019497   4.378294   3.314993
    14  O    4.605019   5.278711   2.763700   1.879073   2.671130
    15  O    2.616981   2.628094   2.665089   2.969017   2.748220
    16  C    3.226594   3.959310   3.180903   3.226383   4.109013
    17  H    2.822411   3.486612   3.525594   3.847614   4.834771
    18  H    3.356484   4.239317   2.668431   2.643812   4.476891
    19  C    4.690661   5.348525   4.551418   4.386563   4.623044
    20  C    5.344210   5.822329   5.676895   5.590882   5.135005
    21  C    5.729480   6.482430   5.047334   4.662802   5.167262
    22  C    6.730179   7.209512   6.901504   6.701751   6.016358
    23  H    4.976903   5.301033   5.762776   5.827668   5.160254
    24  N    7.013569   7.726158   6.359921   5.915452   6.019836
    25  H    5.690058   6.530355   4.589813   4.109447   5.235495
    26  C    7.414984   8.014262   7.144865   6.790784   6.374601
    27  H    7.412135   7.790980   7.810513   7.656385   6.667818
    28  H    8.500644   9.088457   8.192334   7.795027   7.235825
                   11         12         13         14         15
    11  H    0.000000
    12  O    3.307436   0.000000
    13  H    4.138270   0.970558   0.000000
    14  O    2.922218   2.644868   2.803279   0.000000
    15  O    1.868318   4.629906   5.296063   3.614565   0.000000
    16  C    4.252928   3.469588   3.390902   3.310633   4.073331
    17  H    4.836119   4.439185   4.414797   4.281621   4.302136
    18  H    4.557595   3.872726   3.671058   3.000385   4.275969
    19  C    5.048938   3.166699   2.792884   3.895985   5.296601
    20  C    5.616785   3.651284   3.398585   5.022483   5.941192
    21  C    5.708803   3.281978   2.541847   3.891170   6.160500
    22  C    6.640112   4.140422   3.709513   5.878118   7.190412
    23  H    5.524420   4.120976   4.097956   5.454508   5.676004
    24  N    6.689595   3.812473   2.947635   4.917510   7.340731
    25  H    5.705688   3.542523   2.791690   3.425852   6.088004
    26  C    7.078990   4.176796   3.474730   5.786935   7.766589
    27  H    7.296574   4.893021   4.566192   6.829159   7.865359
    28  H    7.997864   4.945602   4.221345   6.687298   8.788887
                   16         17         18         19         20
    16  C    0.000000
    17  H    1.095600   0.000000
    18  H    1.092796   1.760114   0.000000
    19  C    1.511764   2.153015   2.144430   0.000000
    20  C    2.552515   2.786994   3.424488   1.400695   0.000000
    21  C    2.529703   3.320127   2.618172   1.402064   2.391881
    22  C    3.814218   4.124922   4.544022   2.407270   1.391692
    23  H    2.772159   2.679896   3.797425   2.157636   1.084866
    24  N    3.789639   4.495123   3.955806   2.426484   2.803375
    25  H    2.731291   3.601582   2.372406   2.160525   3.387397
    26  C    4.254862   4.782009   4.709013   2.745034   2.399536
    27  H    4.708230   4.881927   5.522359   3.400995   2.160977
    28  H    5.341744   5.857763   5.765486   3.832778   3.392870
                   21         22         23         24         25
    21  C    0.000000
    22  C    2.717952   0.000000
    23  H    3.384241   2.160352   0.000000
    24  N    1.340304   2.407317   3.888162   0.000000
    25  H    1.090475   3.807924   4.298267   2.064584   0.000000
    26  C    2.286195   1.396553   3.393433   1.338398   3.257389
    27  H    3.802511   1.085334   2.508518   3.376583   4.892005
    28  H    3.257598   2.162667   4.306272   2.064020   4.122477
                   26         27         28
    26  C    0.000000
    27  H    2.157661   0.000000
    28  H    1.088127   2.495672   0.000000
 Framework group  C1[X(C7H11NO7P2)]
 Deg. of freedom    78
                         Standard orientation:                         
 ---------------------------------------------------------------------
 Center     Atomic      Atomic             Coordinates (Angstroms)
 Number     Number       Type             X           Y           Z
 ---------------------------------------------------------------------
      1          6           0       -0.613520   -0.365099   -0.318019
      2          8           0       -0.437330   -0.716869   -1.683789
      3          1           0       -0.907850   -0.068179   -2.230019
      4         15           0       -2.391560   -0.694569    0.162211
      5         15           0       -0.471700    1.479131   -0.046119
      6          8           0       -2.642400   -2.281759    0.087581
      7          1           0       -3.167230   -2.505900   -0.694869
      8          8           0       -2.473430   -0.446749    1.737591
      9          1           0       -2.034660    0.416411    1.941811
     10          8           0       -1.394490    2.072871   -1.214769
     11          1           0       -2.290410    1.656141   -1.156899
     12          8           0        0.938900    2.041411   -0.555019
     13          1           0        1.645710    1.905601    0.096101
     14          8           0       -0.842120    1.755171    1.379241
     15          8           0       -3.269240    0.119790   -0.742009
     16          6           0        0.367830   -1.205809    0.525481
     17          1           0        0.174050   -2.253109    0.268671
     18          1           0        0.113610   -1.081759    1.581031
     19          6           0        1.826420   -0.873389    0.307671
     20          6           0        2.513310   -1.239129   -0.856959
     21          6           0        2.544520   -0.158289    1.276561
     22          6           0        3.847900   -0.871199   -0.999449
     23          1           0        2.000040   -1.790629   -1.637559
     24          7           0        3.823760    0.219851    1.146291
     25          1           0        2.055910    0.127311    2.208671
     26          6           0        4.455430   -0.137359    0.021701
     27          1           0        4.409530   -1.139469   -1.888579
     28          1           0        5.493450    0.176941   -0.066339
 ---------------------------------------------------------------------
 Rotational constants (GHZ):           0.7279921           0.2844406           0.2567218
 AO basis set in the form of general basis input (Overlap normalization):
      1 0
 S   6 1.00       0.000000000000
      0.3047524880D+04  0.1834737132D-02
      0.4573695180D+03  0.1403732281D-01
      0.1039486850D+03  0.6884262226D-01
      0.2921015530D+02  0.2321844432D+00
      0.9286662960D+01  0.4679413484D+00
      0.3163926960D+01  0.3623119853D+00
 SP   3 1.00       0.000000000000
      0.7868272350D+01 -0.1193324198D+00  0.6899906659D-01
      0.1881288540D+01 -0.1608541517D+00  0.3164239610D+00
      0.5442492580D+00  0.1143456438D+01  0.7443082909D+00
 SP   1 1.00       0.000000000000
      0.1687144782D+00  0.1000000000D+01  0.1000000000D+01
 D   1 1.00       0.000000000000
      0.8000000000D+00  0.1000000000D+01
 ****
      2 0
 S   6 1.00       0.000000000000
      0.5484671660D+04  0.1831074430D-02
      0.8252349460D+03  0.1395017220D-01
      0.1880469580D+03  0.6844507810D-01
      0.5296450000D+02  0.2327143360D+00
      0.1689757040D+02  0.4701928980D+00
      0.5799635340D+01  0.3585208530D+00
 SP   3 1.00       0.000000000000
      0.1553961625D+02 -0.1107775495D+00  0.7087426823D-01
      0.3599933586D+01 -0.1480262627D+00  0.3397528391D+00
      0.1013761750D+01  0.1130767015D+01  0.7271585773D+00
 SP   1 1.00       0.000000000000
      0.2700058226D+00  0.1000000000D+01  0.1000000000D+01
 D   1 1.00       0.000000000000
      0.8000000000D+00  0.1000000000D+01
 ****
      3 0
 S   3 1.00       0.000000000000
      0.1873113696D+02  0.3349460434D-01
      0.2825394365D+01  0.2347269535D+00
      0.6401216923D+00  0.8137573261D+00
 S   1 1.00       0.000000000000
      0.1612777588D+00  0.1000000000D+01
 P   1 1.00       0.000000000000
      0.1100000000D+01  0.1000000000D+01
 ****
      4 0
 S   6 1.00       0.000000000000
      0.1941330000D+05  0.1851598923D-02
      0.2909420000D+04  0.1420619174D-01
      0.6613640000D+03  0.6999945928D-01
      0.1857590000D+03  0.2400788603D+00
      0.5919430000D+02  0.4847617180D+00
      0.2003100000D+02  0.3351998050D+00
 SP   6 1.00       0.000000000000
      0.3394780000D+03 -0.2782170105D-02  0.4564616191D-02
      0.8101010000D+02 -0.3604990135D-01  0.3369357188D-01
      0.2587800000D+02 -0.1166310044D+00  0.1397548834D+00
      0.9452210000D+01  0.9683280364D-01  0.3393617168D+00
      0.3665660000D+01  0.6144180231D+00  0.4509206237D+00
      0.1467460000D+01  0.4037980152D+00  0.2385858009D+00
 SP   3 1.00       0.000000000000
      0.2156230000D+01 -0.2529241139D+00 -0.1776531273D-01
      0.7489970000D+00  0.3285184468D-01  0.2740581964D+00
      0.2831450000D+00  0.1081254762D+01  0.7854215630D+00
 SP   1 1.00       0.000000000000
      0.9983170000D-01  0.1000000000D+01  0.1000000000D+01
 D   1 1.00       0.000000000000
      0.5500000000D+00  0.1000000000D+01
 ****
      5 0
 S   6 1.00       0.000000000000
      0.1941330000D+05  0.1851598923D-02
      0.2909420000D+04  0.1420619174D-01
      0.6613640000D+03  0.6999945928D-01
      0.1857590000D+03  0.2400788603D+00
      0.5919430000D+02  0.4847617180D+00
      0.2003100000D+02  0.3351998050D+00
 SP   6 1.00       0.000000000000
      0.3394780000D+03 -0.2782170105D-02  0.4564616191D-02
      0.8101010000D+02 -0.3604990135D-01  0.3369357188D-01
      0.2587800000D+02 -0.1166310044D+00  0.1397548834D+00
      0.9452210000D+01  0.9683280364D-01  0.3393617168D+00
      0.3665660000D+01  0.6144180231D+00  0.4509206237D+00
      0.1467460000D+01  0.4037980152D+00  0.2385858009D+00
 SP   3 1.00       0.000000000000
      0.2156230000D+01 -0.2529241139D+00 -0.1776531273D-01
      0.7489970000D+00  0.3285184468D-01  0.2740581964D+00
      0.2831450000D+00  0.1081254762D+01  0.7854215630D+00
 SP   1 1.00       0.000000000000
      0.9983170000D-01  0.1000000000D+01  0.1000000000D+01
 D   1 1.00       0.000000000000
      0.5500000000D+00  0.1000000000D+01
 ****
      6 0
 S   6 1.00       0.000000000000
      0.5484671660D+04  0.1831074430D-02
      0.8252349460D+03  0.1395017220D-01
      0.1880469580D+03  0.6844507810D-01
      0.5296450000D+02  0.2327143360D+00
      0.1689757040D+02  0.4701928980D+00
      0.5799635340D+01  0.3585208530D+00
 SP   3 1.00       0.000000000000
      0.1553961625D+02 -0.1107775495D+00  0.7087426823D-01
      0.3599933586D+01 -0.1480262627D+00  0.3397528391D+00
      0.1013761750D+01  0.1130767015D+01  0.7271585773D+00
 SP   1 1.00       0.000000000000
      0.2700058226D+00  0.1000000000D+01  0.1000000000D+01
 D   1 1.00       0.000000000000
      0.8000000000D+00  0.1000000000D+01
 ****
      7 0
 S   3 1.00       0.000000000000
      0.1873113696D+02  0.3349460434D-01
      0.2825394365D+01  0.2347269535D+00
      0.6401216923D+00  0.8137573261D+00
 S   1 1.00       0.000000000000
      0.1612777588D+00  0.1000000000D+01
 P   1 1.00       0.000000000000
      0.1100000000D+01  0.1000000000D+01
 ****
      8 0
 S   6 1.00       0.000000000000
      0.5484671660D+04  0.1831074430D-02
      0.8252349460D+03  0.1395017220D-01
      0.1880469580D+03  0.6844507810D-01
      0.5296450000D+02  0.2327143360D+00
      0.1689757040D+02  0.4701928980D+00
      0.5799635340D+01  0.3585208530D+00
 SP   3 1.00       0.000000000000
      0.1553961625D+02 -0.1107775495D+00  0.7087426823D-01
      0.3599933586D+01 -0.1480262627D+00  0.3397528391D+00
      0.1013761750D+01  0.1130767015D+01  0.7271585773D+00
 SP   1 1.00       0.000000000000
      0.2700058226D+00  0.1000000000D+01  0.1000000000D+01
 D   1 1.00       0.000000000000
      0.8000000000D+00  0.1000000000D+01
 ****
      9 0
 S   3 1.00       0.000000000000
      0.1873113696D+02  0.3349460434D-01
      0.2825394365D+01  0.2347269535D+00
      0.6401216923D+00  0.8137573261D+00
 S   1 1.00       0.000000000000
      0.1612777588D+00  0.1000000000D+01
 P   1 1.00       0.000000000000
      0.1100000000D+01  0.1000000000D+01
 ****
     10 0
 S   6 1.00       0.000000000000
      0.5484671660D+04  0.1831074430D-02
      0.8252349460D+03  0.1395017220D-01
      0.1880469580D+03  0.6844507810D-01
      0.5296450000D+02  0.2327143360D+00
      0.1689757040D+02  0.4701928980D+00
      0.5799635340D+01  0.3585208530D+00
 SP   3 1.00       0.000000000000
      0.1553961625D+02 -0.1107775495D+00  0.7087426823D-01
      0.3599933586D+01 -0.1480262627D+00  0.3397528391D+00
      0.1013761750D+01  0.1130767015D+01  0.7271585773D+00
 SP   1 1.00       0.000000000000
      0.2700058226D+00  0.1000000000D+01  0.1000000000D+01
 D   1 1.00       0.000000000000
      0.8000000000D+00  0.1000000000D+01
 ****
     11 0
 S   3 1.00       0.000000000000
      0.1873113696D+02  0.3349460434D-01
      0.2825394365D+01  0.2347269535D+00
      0.6401216923D+00  0.8137573261D+00
 S   1 1.00       0.000000000000
      0.1612777588D+00  0.1000000000D+01
 P   1 1.00       0.000000000000
      0.1100000000D+01  0.1000000000D+01
 ****
     12 0
 S   6 1.00       0.000000000000
      0.5484671660D+04  0.1831074430D-02
      0.8252349460D+03  0.1395017220D-01
      0.1880469580D+03  0.6844507810D-01
      0.5296450000D+02  0.2327143360D+00
      0.1689757040D+02  0.4701928980D+00
      0.5799635340D+01  0.3585208530D+00
 SP   3 1.00       0.000000000000
      0.1553961625D+02 -0.1107775495D+00  0.7087426823D-01
      0.3599933586D+01 -0.1480262627D+00  0.3397528391D+00
      0.1013761750D+01  0.1130767015D+01  0.7271585773D+00
 SP   1 1.00       0.000000000000
      0.2700058226D+00  0.1000000000D+01  0.1000000000D+01
 D   1 1.00       0.000000000000
      0.8000000000D+00  0.1000000000D+01
 ****
     13 0
 S   3 1.00       0.000000000000
      0.1873113696D+02  0.3349460434D-01
      0.2825394365D+01  0.2347269535D+00
      0.6401216923D+00  0.8137573261D+00
 S   1 1.00       0.000000000000
      0.1612777588D+00  0.1000000000D+01
 P   1 1.00       0.000000000000
      0.1100000000D+01  0.1000000000D+01
 ****
     14 0
 S   6 1.00       0.000000000000
      0.5484671660D+04  0.1831074430D-02
      0.8252349460D+03  0.1395017220D-01
      0.1880469580D+03  0.6844507810D-01
      0.5296450000D+02  0.2327143360D+00
      0.1689757040D+02  0.4701928980D+00
      0.5799635340D+01  0.3585208530D+00
 SP   3 1.00       0.000000000000
      0.1553961625D+02 -0.1107775495D+00  0.7087426823D-01
      0.3599933586D+01 -0.1480262627D+00  0.3397528391D+00
      0.1013761750D+01  0.1130767015D+01  0.7271585773D+00
 SP   1 1.00       0.000000000000
      0.2700058226D+00  0.1000000000D+01  0.1000000000D+01
 D   1 1.00       0.000000000000
      0.8000000000D+00  0.1000000000D+01
 ****
     15 0
 S   6 1.00       0.000000000000
      0.5484671660D+04  0.1831074430D-02
      0.8252349460D+03  0.1395017220D-01
      0.1880469580D+03  0.6844507810D-01
      0.5296450000D+02  0.2327143360D+00
      0.1689757040D+02  0.4701928980D+00
      0.5799635340D+01  0.3585208530D+00
 SP   3 1.00       0.000000000000
      0.1553961625D+02 -0.1107775495D+00  0.7087426823D-01
      0.3599933586D+01 -0.1480262627D+00  0.3397528391D+00
      0.1013761750D+01  0.1130767015D+01  0.7271585773D+00
 SP   1 1.00       0.000000000000
      0.2700058226D+00  0.1000000000D+01  0.1000000000D+01
 D   1 1.00       0.000000000000
      0.8000000000D+00  0.1000000000D+01
 ****
     16 0
 S   6 1.00       0.000000000000
      0.3047524880D+04  0.1834737132D-02
      0.4573695180D+03  0.1403732281D-01
      0.1039486850D+03  0.6884262226D-01
      0.2921015530D+02  0.2321844432D+00
      0.9286662960D+01  0.4679413484D+00
      0.3163926960D+01  0.3623119853D+00
 SP   3 1.00       0.000000000000
      0.7868272350D+01 -0.1193324198D+00  0.6899906659D-01
      0.1881288540D+01 -0.1608541517D+00  0.3164239610D+00
      0.5442492580D+00  0.1143456438D+01  0.7443082909D+00
 SP   1 1.00       0.000000000000
      0.1687144782D+00  0.1000000000D+01  0.1000000000D+01
 D   1 1.00       0.000000000000
      0.8000000000D+00  0.1000000000D+01
 ****
     17 0
 S   3 1.00       0.000000000000
      0.1873113696D+02  0.3349460434D-01
      0.2825394365D+01  0.2347269535D+00
      0.6401216923D+00  0.8137573261D+00
 S   1 1.00       0.000000000000
      0.1612777588D+00  0.1000000000D+01
 P   1 1.00       0.000000000000
      0.1100000000D+01  0.1000000000D+01
 ****
     18 0
 S   3 1.00       0.000000000000
      0.1873113696D+02  0.3349460434D-01
      0.2825394365D+01  0.2347269535D+00
      0.6401216923D+00  0.8137573261D+00
 S   1 1.00       0.000000000000
      0.1612777588D+00  0.1000000000D+01
 P   1 1.00       0.000000000000
      0.1100000000D+01  0.1000000000D+01
 ****
     19 0
 S   6 1.00       0.000000000000
      0.3047524880D+04  0.1834737132D-02
      0.4573695180D+03  0.1403732281D-01
      0.1039486850D+03  0.6884262226D-01
      0.2921015530D+02  0.2321844432D+00
      0.9286662960D+01  0.4679413484D+00
      0.3163926960D+01  0.3623119853D+00
 SP   3 1.00       0.000000000000
      0.7868272350D+01 -0.1193324198D+00  0.6899906659D-01
      0.1881288540D+01 -0.1608541517D+00  0.3164239610D+00
      0.5442492580D+00  0.1143456438D+01  0.7443082909D+00
 SP   1 1.00       0.000000000000
      0.1687144782D+00  0.1000000000D+01  0.1000000000D+01
 D   1 1.00       0.000000000000
      0.8000000000D+00  0.1000000000D+01
 ****
     20 0
 S   6 1.00       0.000000000000
      0.3047524880D+04  0.1834737132D-02
      0.4573695180D+03  0.1403732281D-01
      0.1039486850D+03  0.6884262226D-01
      0.2921015530D+02  0.2321844432D+00
      0.9286662960D+01  0.4679413484D+00
      0.3163926960D+01  0.3623119853D+00
 SP   3 1.00       0.000000000000
      0.7868272350D+01 -0.1193324198D+00  0.6899906659D-01
      0.1881288540D+01 -0.1608541517D+00  0.3164239610D+00
      0.5442492580D+00  0.1143456438D+01  0.7443082909D+00
 SP   1 1.00       0.000000000000
      0.1687144782D+00  0.1000000000D+01  0.1000000000D+01
 D   1 1.00       0.000000000000
      0.8000000000D+00  0.1000000000D+01
 ****
     21 0
 S   6 1.00       0.000000000000
      0.3047524880D+04  0.1834737132D-02
      0.4573695180D+03  0.1403732281D-01
      0.1039486850D+03  0.6884262226D-01
      0.2921015530D+02  0.2321844432D+00
      0.9286662960D+01  0.4679413484D+00
      0.3163926960D+01  0.3623119853D+00
 SP   3 1.00       0.000000000000
      0.7868272350D+01 -0.1193324198D+00  0.6899906659D-01
      0.1881288540D+01 -0.1608541517D+00  0.3164239610D+00
      0.5442492580D+00  0.1143456438D+01  0.7443082909D+00
 SP   1 1.00       0.000000000000
      0.1687144782D+00  0.1000000000D+01  0.1000000000D+01
 D   1 1.00       0.000000000000
      0.8000000000D+00  0.1000000000D+01
 ****
     22 0
 S   6 1.00       0.000000000000
      0.3047524880D+04  0.1834737132D-02
      0.4573695180D+03  0.1403732281D-01
      0.1039486850D+03  0.6884262226D-01
      0.2921015530D+02  0.2321844432D+00
      0.9286662960D+01  0.4679413484D+00
      0.3163926960D+01  0.3623119853D+00
 SP   3 1.00       0.000000000000
      0.7868272350D+01 -0.1193324198D+00  0.6899906659D-01
      0.1881288540D+01 -0.1608541517D+00  0.3164239610D+00
      0.5442492580D+00  0.1143456438D+01  0.7443082909D+00
 SP   1 1.00       0.000000000000
      0.1687144782D+00  0.1000000000D+01  0.1000000000D+01
 D   1 1.00       0.000000000000
      0.8000000000D+00  0.1000000000D+01
 ****
     23 0
 S   3 1.00       0.000000000000
      0.1873113696D+02  0.3349460434D-01
      0.2825394365D+01  0.2347269535D+00
      0.6401216923D+00  0.8137573261D+00
 S   1 1.00       0.000000000000
      0.1612777588D+00  0.1000000000D+01
 P   1 1.00       0.000000000000
      0.1100000000D+01  0.1000000000D+01
 ****
     24 0
 S   6 1.00       0.000000000000
      0.4173511460D+04  0.1834772160D-02
      0.6274579110D+03  0.1399462700D-01
      0.1429020930D+03  0.6858655181D-01
      0.4023432930D+02  0.2322408730D+00
      0.1282021290D+02  0.4690699481D+00
      0.4390437010D+01  0.3604551991D+00
 SP   3 1.00       0.000000000000
      0.1162636186D+02 -0.1149611817D+00  0.6757974388D-01
      0.2716279807D+01 -0.1691174786D+00  0.3239072959D+00
      0.7722183966D+00  0.1145851947D+01  0.7408951398D+00
 SP   1 1.00       0.000000000000
      0.2120314975D+00  0.1000000000D+01  0.1000000000D+01
 D   1 1.00       0.000000000000
      0.8000000000D+00  0.1000000000D+01
 ****
     25 0
 S   3 1.00       0.000000000000
      0.1873113696D+02  0.3349460434D-01
      0.2825394365D+01  0.2347269535D+00
      0.6401216923D+00  0.8137573261D+00
 S   1 1.00       0.000000000000
      0.1612777588D+00  0.1000000000D+01
 P   1 1.00       0.000000000000
      0.1100000000D+01  0.1000000000D+01
 ****
     26 0
 S   6 1.00       0.000000000000
      0.3047524880D+04  0.1834737132D-02
      0.4573695180D+03  0.1403732281D-01
      0.1039486850D+03  0.6884262226D-01
      0.2921015530D+02  0.2321844432D+00
      0.9286662960D+01  0.4679413484D+00
      0.3163926960D+01  0.3623119853D+00
 SP   3 1.00       0.000000000000
      0.7868272350D+01 -0.1193324198D+00  0.6899906659D-01
      0.1881288540D+01 -0.1608541517D+00  0.3164239610D+00
      0.5442492580D+00  0.1143456438D+01  0.7443082909D+00
 SP   1 1.00       0.000000000000
      0.1687144782D+00  0.1000000000D+01  0.1000000000D+01
 D   1 1.00       0.000000000000
      0.8000000000D+00  0.1000000000D+01
 ****
     27 0
 S   3 1.00       0.000000000000
      0.1873113696D+02  0.3349460434D-01
      0.2825394365D+01  0.2347269535D+00
      0.6401216923D+00  0.8137573261D+00
 S   1 1.00       0.000000000000
      0.1612777588D+00  0.1000000000D+01
 P   1 1.00       0.000000000000
      0.1100000000D+01  0.1000000000D+01
 ****
     28 0
 S   3 1.00       0.000000000000
      0.1873113696D+02  0.3349460434D-01
      0.2825394365D+01  0.2347269535D+00
      0.6401216923D+00  0.8137573261D+00
 S   1 1.00       0.000000000000
      0.1612777588D+00  0.1000000000D+01
 P   1 1.00       0.000000000000
      0.1100000000D+01  0.1000000000D+01
 ****

   318 basis functions,   601 primitive gaussians,   318 cartesian basis functions
    73 alpha electrons       72 beta electrons
       nuclear repulsion energy      1704.7687367158 Hartrees.
 NAtoms=   28 NActive=   28 NUniq=   28 SFac= 1.00D+00 NAtFMM=   60 NAOKFM=F Big=F
 ExpMin= 9.98D-02 ExpMax= 1.94D+04 ExpMxC= 2.91D+03 IAcc=3 IRadAn=         5 AccDes= 0.00D+00
 Harris functional with IExCor=  402 and IRadAn=       5 diagonalized for initial guess.
 HarFok:  IExCor=  402 AccDes= 0.00D+00 IRadAn=         5 IDoV= 1 UseB2=F ITyADJ=14
 ICtDFT=  3500011 ScaDFX=  1.000000  1.000000  1.000000  1.000000
 FoFCou: FMM=F IPFlag=           0 FMFlag=      100000 FMFlg1=           0
         NFxFlg=           0 DoJE=T BraDBF=F KetDBF=T FulRan=T
         wScrn=  0.000000 ICntrl=       500 IOpCl=  0 I1Cent=   200000004 NGrid=           0
         NMat0=    1 NMatS0=      1 NMatT0=    0 NMatD0=    1 NMtDS0=    0 NMtDT0=    0
 Petite list used in FoFCou.
 Initial guess <Sx>= 0.0000 <Sy>= 0.0000 <Sz>= 0.5000 <S**2>= 0.7500 S= 0.5000
 Integral accuracy reduced to 1.0D-05 until final iterations.
 Initial convergence to 1.0D-05 achieved.  Increase integral accuracy.
 SCF Done:  E(UB3LYP) =  -1537.22213194     A.U. after   36 cycles
            NFock= 36  Conv=0.45D-08     -V/T= 2.0068
 <Sx>= 0.0000 <Sy>= 0.0000 <Sz>= 0.5000 <S**2>= 0.7539 S= 0.5019
 <L.S>= 0.000000000000E+00
 Annihilation of the first spin contaminant:
 S**2 before annihilation     0.7539,   after     0.7500

 **********************************************************************

            Population analysis using the SCF density.

 **********************************************************************

 Orbital symmetries:
 Alpha Orbitals:
       Occupied  (A) (A) (A) (A) (A) (A) (A) (A) (A) (A) (A) (A)
                 (A) (A) (A) (A) (A) (A) (A) (A) (A) (A) (A) (A)
                 (A) (A) (A) (A) (A) (A) (A) (A) (A) (A) (A) (A)
                 (A) (A) (A) (A) (A) (A) (A) (A) (A) (A) (A) (A)
                 (A) (A) (A) (A) (A) (A) (A) (A) (A) (A) (A) (A)
                 (A) (A) (A) (A) (A) (A) (A) (A) (A) (A) (A) (A)
                 (A)
       Virtual   (A) (A) (A) (A) (A) (A) (A) (A) (A) (A) (A) (A)
                 (A) (A) (A) (A) (A) (A) (A) (A) (A) (A) (A) (A)
                 (A) (A) (A) (A) (A) (A) (A) (A) (A) (A) (A) (A)
                 (A) (A) (A) (A) (A) (A) (A) (A) (A) (A) (A) (A)
                 (A) (A) (A) (A) (A) (A) (A) (A) (A) (A) (A) (A)
                 (A) (A) (A) (A) (A) (A) (A) (A) (A) (A) (A) (A)
                 (A) (A) (A) (A) (A) (A) (A) (A) (A) (A) (A) (A)
                 (A) (A) (A) (A) (A) (A) (A) (A) (A) (A) (A) (A)
                 (A) (A) (A) (A) (A) (A) (A) (A) (A) (A) (A) (A)
                 (A) (A) (A) (A) (A) (A) (A) (A) (A) (A) (A) (A)
                 (A) (A) (A) (A) (A) (A) (A) (A) (A) (A) (A) (A)
                 (A) (A) (A) (A) (A) (A) (A) (A) (A) (A) (A) (A)
                 (A) (A) (A) (A) (A) (A) (A) (A) (A) (A) (A) (A)
                 (A) (A) (A) (A) (A) (A) (A) (A) (A) (A) (A) (A)
                 (A) (A) (A) (A) (A) (A) (A) (A) (A) (A) (A) (A)
                 (A) (A) (A) (A) (A) (A) (A) (A) (A) (A) (A) (A)
                 (A) (A) (A) (A) (A) (A) (A) (A) (A) (A) (A) (A)
                 (A) (A) (A) (A) (A) (A) (A) (A) (A) (A) (A) (A)
                 (A) (A) (A) (A) (A) (A) (A) (A) (A) (A) (A) (A)
                 (A) (A) (A) (A) (A) (A) (A) (A) (A) (A) (A) (A)
                 (A) (A) (A) (A) (A)
 Beta  Orbitals:
       Occupied  (A) (A) (A) (A) (A) (A) (A) (A) (A) (A) (A) (A)
                 (A) (A) (A) (A) (A) (A) (A) (A) (A) (A) (A) (A)
                 (A) (A) (A) (A) (A) (A) (A) (A) (A) (A) (A) (A)
                 (A) (A) (A) (A) (A) (A) (A) (A) (A) (A) (A) (A)
                 (A) (A) (A) (A) (A) (A) (A) (A) (A) (A) (A) (A)
                 (A) (A) (A) (A) (A) (A) (A) (A) (A) (A) (A) (A)
       Virtual   (A) (A) (A) (A) (A) (A) (A) (A) (A) (A) (A) (A)
                 (A) (A) (A) (A) (A) (A) (A) (A) (A) (A) (A) (A)
                 (A) (A) (A) (A) (A) (A) (A) (A) (A) (A) (A) (A)
                 (A) (A) (A) (A) (A) (A) (A) (A) (A) (A) (A) (A)
                 (A) (A) (A) (A) (A) (A) (A) (A) (A) (A) (A) (A)
                 (A) (A) (A) (A) (A) (A) (A) (A) (A) (A) (A) (A)
                 (A) (A) (A) (A) (A) (A) (A) (A) (A) (A) (A) (A)
                 (A) (A) (A) (A) (A) (A) (A) (A) (A) (A) (A) (A)
                 (A) (A) (A) (A) (A) (A) (A) (A) (A) (A) (A) (A)
                 (A) (A) (A) (A) (A) (A) (A) (A) (A) (A) (A) (A)
                 (A) (A) (A) (A) (A) (A) (A) (A) (A) (A) (A) (A)
                 (A) (A) (A) (A) (A) (A) (A) (A) (A) (A) (A) (A)
                 (A) (A) (A) (A) (A) (A) (A) (A) (A) (A) (A) (A)
                 (A) (A) (A) (A) (A) (A) (A) (A) (A) (A) (A) (A)
                 (A) (A) (A) (A) (A) (A) (A) (A) (A) (A) (A) (A)
                 (A) (A) (A) (A) (A) (A) (A) (A) (A) (A) (A) (A)
                 (A) (A) (A) (A) (A) (A) (A) (A) (A) (A) (A) (A)
                 (A) (A) (A) (A) (A) (A) (A) (A) (A) (A) (A) (A)
                 (A) (A) (A) (A) (A) (A) (A) (A) (A) (A) (A) (A)
                 (A) (A) (A) (A) (A) (A) (A) (A) (A) (A) (A) (A)
                 (A) (A) (A) (A) (A) (A)
 The electronic state is 2-A.
 Alpha  occ. eigenvalues --  -77.39852 -77.39656 -19.37872 -19.35796 -19.35251
 Alpha  occ. eigenvalues --  -19.34269 -19.33893 -19.29790 -19.29377 -14.56509
 Alpha  occ. eigenvalues --  -10.46351 -10.42321 -10.41864 -10.40477 -10.38976
 Alpha  occ. eigenvalues --  -10.38967 -10.38668  -6.84802  -6.84589  -5.01170
 Alpha  occ. eigenvalues --   -5.01112  -5.00995  -5.00983  -5.00896  -5.00760
 Alpha  occ. eigenvalues --   -1.25811  -1.24167  -1.23588  -1.19572  -1.19318
 Alpha  occ. eigenvalues --   -1.15068  -1.14241  -1.13725  -1.01542  -0.97228
 Alpha  occ. eigenvalues --   -0.93956  -0.85859  -0.82126  -0.81094  -0.79951
 Alpha  occ. eigenvalues --   -0.78027  -0.74421  -0.70983  -0.69925  -0.68209
 Alpha  occ. eigenvalues --   -0.68025  -0.67445  -0.64713  -0.63395  -0.62606
 Alpha  occ. eigenvalues --   -0.62018  -0.60833  -0.59794  -0.59164  -0.58861
 Alpha  occ. eigenvalues --   -0.58059  -0.57790  -0.56536  -0.55129  -0.54939
 Alpha  occ. eigenvalues --   -0.54371  -0.53539  -0.52279  -0.51621  -0.50580
 Alpha  occ. eigenvalues --   -0.48969  -0.48167  -0.47334  -0.47003  -0.46819
 Alpha  occ. eigenvalues --   -0.46716  -0.44851  -0.44569
 Alpha virt. eigenvalues --   -0.21915  -0.20188  -0.13950  -0.11152  -0.10283
 Alpha virt. eigenvalues --   -0.08825  -0.07038  -0.05508  -0.04998  -0.04211
 Alpha virt. eigenvalues --   -0.03782  -0.03438  -0.03085  -0.02453  -0.00758
 Alpha virt. eigenvalues --    0.00286   0.00824   0.00967   0.02970   0.03281
 Alpha virt. eigenvalues --    0.04188   0.06042   0.06826   0.07400   0.08313
 Alpha virt. eigenvalues --    0.09944   0.13245   0.14194   0.16184   0.17470
 Alpha virt. eigenvalues --    0.17978   0.20079   0.23707   0.24024   0.25838
 Alpha virt. eigenvalues --    0.27155   0.28181   0.28680   0.30066   0.33132
 Alpha virt. eigenvalues --    0.35439   0.37082   0.37634   0.38449   0.39943
 Alpha virt. eigenvalues --    0.40918   0.41796   0.42462   0.43002   0.43391
 Alpha virt. eigenvalues --    0.44819   0.46981   0.48270   0.48988   0.52217
 Alpha virt. eigenvalues --    0.52858   0.54353   0.57064   0.59095   0.59287
 Alpha virt. eigenvalues --    0.61026   0.61660   0.62707   0.63300   0.64764
 Alpha virt. eigenvalues --    0.65053   0.65369   0.66534   0.66984   0.68387
 Alpha virt. eigenvalues --    0.68720   0.70204   0.72640   0.72928   0.73714
 Alpha virt. eigenvalues --    0.75336   0.75569   0.78025   0.79765   0.80225
 Alpha virt. eigenvalues --    0.80271   0.82204   0.82776   0.83304   0.84239
 Alpha virt. eigenvalues --    0.85782   0.86119   0.87472   0.87964   0.89723
 Alpha virt. eigenvalues --    0.90151   0.90781   0.91074   0.92338   0.94268
 Alpha virt. eigenvalues --    0.95701   0.98229   0.98758   0.99400   1.00006
 Alpha virt. eigenvalues --    1.02063   1.04775   1.05653   1.06481   1.09273
 Alpha virt. eigenvalues --    1.09671   1.11349   1.12086   1.15608   1.16183
 Alpha virt. eigenvalues --    1.17993   1.19435   1.21242   1.22189   1.24455
 Alpha virt. eigenvalues --    1.25577   1.27079   1.28691   1.30211   1.31102
 Alpha virt. eigenvalues --    1.36298   1.37438   1.39354   1.41374   1.41949
 Alpha virt. eigenvalues --    1.42773   1.43739   1.45269   1.47115   1.48629
 Alpha virt. eigenvalues --    1.50315   1.52959   1.53855   1.56133   1.56741
 Alpha virt. eigenvalues --    1.58318   1.59314   1.60702   1.62270   1.63498
 Alpha virt. eigenvalues --    1.65153   1.66374   1.67202   1.67601   1.69447
 Alpha virt. eigenvalues --    1.71346   1.72310   1.72600   1.74657   1.76387
 Alpha virt. eigenvalues --    1.77467   1.78336   1.79439   1.80743   1.81643
 Alpha virt. eigenvalues --    1.82723   1.84485   1.88649   1.90020   1.92084
 Alpha virt. eigenvalues --    1.92247   1.93487   1.93964   1.98300   2.03865
 Alpha virt. eigenvalues --    2.03923   2.05392   2.07461   2.09922   2.10990
 Alpha virt. eigenvalues --    2.13609   2.14508   2.16999   2.17947   2.18605
 Alpha virt. eigenvalues --    2.19568   2.20960   2.21505   2.23394   2.24084
 Alpha virt. eigenvalues --    2.25575   2.26567   2.29130   2.30331   2.33524
 Alpha virt. eigenvalues --    2.33630   2.34571   2.35477   2.36462   2.41586
 Alpha virt. eigenvalues --    2.44510   2.44875   2.45572   2.46362   2.46454
 Alpha virt. eigenvalues --    2.47326   2.48369   2.48878   2.50086   2.51489
 Alpha virt. eigenvalues --    2.53179   2.54727   2.55471   2.56561   2.61361
 Alpha virt. eigenvalues --    2.62533   2.63866   2.66050   2.67514   2.68666
 Alpha virt. eigenvalues --    2.70505   2.73506   2.79992   2.83804   2.88656
 Alpha virt. eigenvalues --    3.01006   3.06056   3.08948   3.12785   3.20355
 Alpha virt. eigenvalues --    3.21126   3.24165   3.24800   3.26541   3.27242
 Alpha virt. eigenvalues --    3.29530   3.31628   3.36402   3.37135   3.60819
 Alpha virt. eigenvalues --    3.65359   3.71920   3.84115   3.90400   3.94676
 Alpha virt. eigenvalues --    3.97204   4.01037   4.02760   4.10415   4.13408
 Alpha virt. eigenvalues --    4.14885   4.19796   4.29687   4.46702   4.58561
  Beta  occ. eigenvalues --  -77.39840 -77.39652 -19.37499 -19.35770 -19.35206
  Beta  occ. eigenvalues --  -19.34172 -19.33860 -19.29562 -19.29249 -14.55764
  Beta  occ. eigenvalues --  -10.46186 -10.42252 -10.41809 -10.40356 -10.39004
  Beta  occ. eigenvalues --  -10.38957 -10.38559  -6.84788  -6.84584  -5.01170
  Beta  occ. eigenvalues --   -5.01090  -5.00983  -5.00962  -5.00892  -5.00742
  Beta  occ. eigenvalues --   -1.25445  -1.24028  -1.23033  -1.19440  -1.19173
  Beta  occ. eigenvalues --   -1.14054  -1.13824  -1.13350  -1.01103  -0.96843
  Beta  occ. eigenvalues --   -0.93416  -0.85413  -0.81632  -0.80825  -0.79587
  Beta  occ. eigenvalues --   -0.77756  -0.74169  -0.70423  -0.69351  -0.68041
  Beta  occ. eigenvalues --   -0.67611  -0.67210  -0.64370  -0.63182  -0.62363
  Beta  occ. eigenvalues --   -0.61759  -0.60523  -0.59112  -0.58496  -0.58258
  Beta  occ. eigenvalues --   -0.57902  -0.57378  -0.56182  -0.54716  -0.54477
  Beta  occ. eigenvalues --   -0.54139  -0.52182  -0.52085  -0.51409  -0.50160
  Beta  occ. eigenvalues --   -0.48225  -0.47035  -0.46688  -0.46561  -0.45956
  Beta  occ. eigenvalues --   -0.44202  -0.42763
  Beta virt. eigenvalues --   -0.39646  -0.21406  -0.19853  -0.13732  -0.10891
  Beta virt. eigenvalues --   -0.10112  -0.08650  -0.06858  -0.05213  -0.04739
  Beta virt. eigenvalues --   -0.03857  -0.03595  -0.03265  -0.02913  -0.02296
  Beta virt. eigenvalues --   -0.00538   0.00464   0.00940   0.01083   0.03107
  Beta virt. eigenvalues --    0.03405   0.04354   0.06216   0.07031   0.07507
  Beta virt. eigenvalues --    0.08562   0.10062   0.13564   0.14420   0.16317
  Beta virt. eigenvalues --    0.17694   0.18294   0.20228   0.23822   0.24211
  Beta virt. eigenvalues --    0.25959   0.27268   0.28422   0.28807   0.30235
  Beta virt. eigenvalues --    0.33274   0.35625   0.37270   0.37948   0.38745
  Beta virt. eigenvalues --    0.40451   0.41155   0.41948   0.42652   0.43131
  Beta virt. eigenvalues --    0.43503   0.45759   0.47401   0.48534   0.49246
  Beta virt. eigenvalues --    0.52401   0.52985   0.54458   0.57260   0.59207
  Beta virt. eigenvalues --    0.59419   0.61193   0.61816   0.62879   0.63487
  Beta virt. eigenvalues --    0.64965   0.65437   0.65523   0.66757   0.67490
  Beta virt. eigenvalues --    0.68871   0.69080   0.70343   0.72822   0.73127
  Beta virt. eigenvalues --    0.73924   0.75536   0.75719   0.78158   0.79999
  Beta virt. eigenvalues --    0.80337   0.80602   0.82332   0.82917   0.83396
  Beta virt. eigenvalues --    0.84458   0.86054   0.86268   0.87709   0.88139
  Beta virt. eigenvalues --    0.89874   0.90340   0.90945   0.91238   0.92514
  Beta virt. eigenvalues --    0.94429   0.95946   0.98403   0.98907   0.99632
  Beta virt. eigenvalues --    1.00228   1.02323   1.05059   1.05910   1.06714
  Beta virt. eigenvalues --    1.09449   1.09916   1.11564   1.12344   1.15832
  Beta virt. eigenvalues --    1.16513   1.18178   1.19619   1.21488   1.22355
  Beta virt. eigenvalues --    1.24743   1.25791   1.28133   1.29058   1.30478
  Beta virt. eigenvalues --    1.31283   1.36433   1.37627   1.39533   1.41544
  Beta virt. eigenvalues --    1.42085   1.42885   1.43950   1.45376   1.47289
  Beta virt. eigenvalues --    1.48778   1.50478   1.53153   1.54102   1.56411
  Beta virt. eigenvalues --    1.57830   1.58738   1.59573   1.61125   1.62495
  Beta virt. eigenvalues --    1.63734   1.65380   1.66569   1.67420   1.67793
  Beta virt. eigenvalues --    1.69689   1.71603   1.72571   1.72832   1.74891
  Beta virt. eigenvalues --    1.76597   1.77744   1.78614   1.79660   1.80971
  Beta virt. eigenvalues --    1.81846   1.82978   1.85022   1.88998   1.90326
  Beta virt. eigenvalues --    1.92450   1.92844   1.93704   1.94516   1.98640
  Beta virt. eigenvalues --    2.04053   2.04093   2.05537   2.07679   2.10120
  Beta virt. eigenvalues --    2.11267   2.13979   2.14808   2.17288   2.18107
  Beta virt. eigenvalues --    2.18809   2.19827   2.21359   2.21717   2.23558
  Beta virt. eigenvalues --    2.24247   2.25730   2.26932   2.29454   2.30710
  Beta virt. eigenvalues --    2.33692   2.33848   2.34794   2.35641   2.36671
  Beta virt. eigenvalues --    2.41800   2.44709   2.45036   2.45722   2.46417
  Beta virt. eigenvalues --    2.46549   2.47486   2.48484   2.49256   2.50212
  Beta virt. eigenvalues --    2.51660   2.53341   2.54995   2.55681   2.56646
  Beta virt. eigenvalues --    2.61683   2.62633   2.64010   2.66320   2.67724
  Beta virt. eigenvalues --    2.68855   2.70696   2.73629   2.80732   2.84034
  Beta virt. eigenvalues --    2.88878   3.01543   3.06230   3.09214   3.12912
  Beta virt. eigenvalues --    3.20394   3.21391   3.24192   3.24843   3.26717
  Beta virt. eigenvalues --    3.27369   3.29559   3.31699   3.36462   3.37169
  Beta virt. eigenvalues --    3.61205   3.65536   3.72039   3.84388   3.91043
  Beta virt. eigenvalues --    3.94967   3.97431   4.01674   4.02941   4.10613
  Beta virt. eigenvalues --    4.13526   4.15053   4.20046   4.29887   4.46862
  Beta virt. eigenvalues --    4.58757
     Alpha Molecular Orbital Coefficients:
                           1         2         3         4         5
                           O         O         O         O         O
     Eigenvalues --   -77.39852 -77.39656 -19.37872 -19.35796 -19.35251
   1 1   C  1S         -0.00003  -0.00002  -0.00001  -0.00003  -0.00002
   2        2S         -0.00001   0.00002   0.00016  -0.00017  -0.00010
   3        2PX        -0.00003   0.00000   0.00010  -0.00000  -0.00003
   4        2PY        -0.00002   0.00005  -0.00012   0.00000  -0.00002
   5        2PZ         0.00001  -0.00001  -0.00031   0.00007  -0.00001
   6        3S          0.00076   0.00052  -0.00126   0.00085   0.00044
   7        3PX        -0.00037   0.00017  -0.00062  -0.00002  -0.00034
   8        3PY        -0.00027   0.00042   0.00058   0.00039   0.00021
   9        3PZ         0.00014  -0.00006   0.00118  -0.00049   0.00076
  10        4XX        -0.00012  -0.00007   0.00004  -0.00002   0.00004
  11        4YY        -0.00007  -0.00013   0.00004   0.00002   0.00000
  12        4ZZ        -0.00006  -0.00004   0.00020  -0.00003  -0.00006
  13        4XY        -0.00002  -0.00001   0.00001   0.00003   0.00004
  14        4XZ         0.00003   0.00000  -0.00003  -0.00000  -0.00002
  15        4YZ         0.00001  -0.00002   0.00007  -0.00000  -0.00002
  16 2   O  1S         -0.00000   0.00000   0.99270  -0.00001  -0.00008
  17        2S         -0.00000   0.00002   0.02586  -0.00004  -0.00021
  18        2PX         0.00001   0.00001  -0.00057  -0.00002   0.00002
  19        2PY        -0.00001  -0.00001   0.00086  -0.00004   0.00001
  20        2PZ        -0.00001  -0.00001   0.00021  -0.00002  -0.00002
  21        3S         -0.00012  -0.00020   0.01266  -0.00014   0.00106
  22        3PX         0.00006  -0.00007  -0.00001   0.00012  -0.00010
  23        3PY         0.00007  -0.00005   0.00007   0.00007  -0.00001
  24        3PZ        -0.00010  -0.00014   0.00061   0.00004   0.00032
  25        4XX         0.00002  -0.00002  -0.00816  -0.00005  -0.00014
  26        4YY        -0.00003   0.00003  -0.00819  -0.00002  -0.00015
  27        4ZZ        -0.00001   0.00000  -0.00825  -0.00005  -0.00011
  28        4XY        -0.00001  -0.00001  -0.00000   0.00003   0.00003
  29        4XZ         0.00000  -0.00000   0.00004  -0.00000  -0.00003
  30        4YZ         0.00001  -0.00003  -0.00006   0.00001   0.00001
  31 3   H  1S         -0.00001  -0.00003   0.00033  -0.00004  -0.00001
  32        2S         -0.00018  -0.00018  -0.00124   0.00039  -0.00002
  33        3PX         0.00003  -0.00001  -0.00007   0.00002   0.00003
  34        3PY         0.00000  -0.00001   0.00008  -0.00000  -0.00001
  35        3PZ        -0.00004  -0.00003  -0.00014   0.00003   0.00000
  36 4   P  1S          0.99625   0.00100   0.00000   0.00000   0.00001
  37        2S          0.01418  -0.00001   0.00004   0.00005  -0.00001
  38        2PX         0.00003   0.00001  -0.00001  -0.00001  -0.00001
  39        2PY        -0.00002  -0.00000   0.00000   0.00000   0.00006
  40        2PZ         0.00001  -0.00001  -0.00000  -0.00000  -0.00000
  41        3S         -0.02722  -0.00007   0.00030   0.00020   0.00030
  42        3PX        -0.00016  -0.00011   0.00015   0.00008   0.00015
  43        3PY        -0.00003  -0.00001   0.00000  -0.00001  -0.00018
  44        3PZ         0.00003   0.00005  -0.00001   0.00002  -0.00002
  45        4S          0.00277   0.00034  -0.00131  -0.00106  -0.00286
  46        4PX         0.00014   0.00016  -0.00053  -0.00035  -0.00100
  47        4PY         0.00018   0.00001   0.00031  -0.00066   0.00214
  48        4PZ        -0.00012   0.00006   0.00021   0.00001  -0.00119
  49        5XX         0.00943  -0.00004   0.00001   0.00004  -0.00001
  50        5YY         0.00947  -0.00001  -0.00004   0.00003   0.00027
  51        5ZZ         0.00948   0.00000  -0.00003   0.00001  -0.00011
  52        5XY        -0.00004  -0.00002  -0.00003  -0.00001   0.00003
  53        5XZ         0.00002   0.00001  -0.00002   0.00001  -0.00001
  54        5YZ        -0.00001  -0.00000   0.00002   0.00001   0.00004
  55 5   P  1S         -0.00100   0.99625   0.00000   0.00001   0.00000
  56        2S         -0.00004   0.01417   0.00002  -0.00006   0.00001
  57        2PX         0.00000   0.00001  -0.00001  -0.00005  -0.00000
  58        2PY        -0.00001  -0.00002   0.00000  -0.00002  -0.00000
  59        2PZ        -0.00000  -0.00003  -0.00000   0.00003   0.00001
  60        3S         -0.00002  -0.02727   0.00013   0.00015   0.00006
  61        3PX        -0.00000   0.00001   0.00004   0.00017   0.00001
  62        3PY         0.00012   0.00019  -0.00009   0.00003   0.00003
  63        3PZ         0.00001   0.00006   0.00000  -0.00014  -0.00007
  64        4S          0.00032   0.00305  -0.00052  -0.00209  -0.00059
  65        4PX        -0.00009  -0.00001  -0.00004  -0.00160   0.00052
  66        4PY        -0.00013  -0.00034   0.00026  -0.00047   0.00027
  67        4PZ        -0.00007   0.00019   0.00006   0.00194  -0.00020
  68        5XX        -0.00002   0.00945   0.00002   0.00019   0.00002
  69        5YY        -0.00007   0.00943   0.00002  -0.00005  -0.00001
  70        5ZZ        -0.00002   0.00951  -0.00003  -0.00007   0.00000
  71        5XY        -0.00001  -0.00001  -0.00004   0.00011  -0.00001
  72        5XZ        -0.00000  -0.00002  -0.00000  -0.00013  -0.00001
  73        5YZ        -0.00001   0.00000   0.00002  -0.00004   0.00002
  74 6   O  1S         -0.00002   0.00000  -0.00001  -0.00007   0.99269
  75        2S         -0.00008   0.00001  -0.00019   0.00002   0.02575
  76        2PX         0.00001   0.00000  -0.00003  -0.00001  -0.00038
  77        2PY        -0.00010  -0.00001  -0.00003  -0.00000   0.00054
  78        2PZ         0.00001   0.00000   0.00001   0.00001  -0.00078
  79        3S          0.00092  -0.00005   0.00086  -0.00013   0.01288
  80        3PX        -0.00008  -0.00001   0.00020   0.00003   0.00039
  81        3PY         0.00036  -0.00000   0.00024   0.00000   0.00041
  82        3PZ        -0.00009  -0.00002   0.00002  -0.00005   0.00040
  83        4XX        -0.00003  -0.00000  -0.00013   0.00002  -0.00823
  84        4YY        -0.00029   0.00000  -0.00012   0.00002  -0.00830
  85        4ZZ        -0.00001  -0.00000  -0.00015   0.00003  -0.00824
  86        4XY        -0.00004   0.00000   0.00002   0.00001   0.00001
  87        4XZ         0.00004  -0.00000  -0.00003   0.00000  -0.00001
  88        4YZ         0.00000  -0.00000  -0.00002  -0.00000   0.00002
  89 7   H  1S         -0.00009  -0.00000   0.00002  -0.00000   0.00040
  90        2S         -0.00021   0.00000   0.00012  -0.00008  -0.00091
  91        3PX         0.00000  -0.00000   0.00002  -0.00001  -0.00004
  92        3PY         0.00001  -0.00000   0.00001  -0.00001  -0.00007
  93        3PZ        -0.00001   0.00000   0.00003  -0.00000  -0.00005
  94 8   O  1S         -0.00001   0.00002   0.00000   0.00002   0.00019
  95        2S         -0.00005   0.00007  -0.00001  -0.00009  -0.00028
  96        2PX        -0.00001   0.00001  -0.00000   0.00000  -0.00004
  97        2PY         0.00000  -0.00000   0.00001  -0.00001   0.00002
  98        2PZ         0.00010  -0.00002  -0.00001   0.00001  -0.00003
  99        3S          0.00075  -0.00028   0.00010   0.00051   0.00174
 100        3PX         0.00003  -0.00006   0.00003   0.00002   0.00018
 101        3PY         0.00000   0.00001  -0.00009   0.00010  -0.00036
 102        3PZ        -0.00034   0.00014  -0.00003  -0.00009  -0.00022
 103        4XX        -0.00001   0.00005  -0.00000  -0.00007  -0.00017
 104        4YY         0.00000   0.00005   0.00001  -0.00006  -0.00030
 105        4ZZ        -0.00027   0.00003   0.00000  -0.00006  -0.00021
 106        4XY         0.00001  -0.00001  -0.00001  -0.00000  -0.00004
 107        4XZ         0.00003   0.00002   0.00001   0.00001  -0.00004
 108        4YZ        -0.00003   0.00001   0.00001  -0.00000  -0.00004
 109 9   H  1S         -0.00004   0.00001   0.00003  -0.00003   0.00006
 110        2S         -0.00017  -0.00018   0.00002  -0.00013   0.00005
 111        3PX         0.00000  -0.00001  -0.00000   0.00001  -0.00004
 112        3PY        -0.00001  -0.00000   0.00000   0.00002  -0.00004
 113        3PZ        -0.00003   0.00002  -0.00001   0.00001  -0.00000
 114 10  O  1S          0.00001  -0.00001  -0.00003   0.00007   0.00002
 115        2S          0.00007  -0.00006  -0.00009  -0.00019  -0.00005
 116        2PX         0.00001  -0.00004  -0.00001   0.00001   0.00001
 117        2PY        -0.00002   0.00004   0.00003   0.00000  -0.00000
 118        2PZ         0.00001  -0.00008   0.00002   0.00004  -0.00001
 119        3S         -0.00027   0.00079   0.00034   0.00131   0.00032
 120        3PX        -0.00005   0.00014   0.00009   0.00026  -0.00009
 121        3PY         0.00010  -0.00013  -0.00018  -0.00006  -0.00003
 122        3PZ        -0.00009   0.00028  -0.00004  -0.00007   0.00007
 123        4XX         0.00005  -0.00008  -0.00007  -0.00029  -0.00003
 124        4YY         0.00003  -0.00007  -0.00003  -0.00010  -0.00004
 125        4ZZ         0.00004  -0.00016  -0.00007  -0.00014  -0.00003
 126        4XY        -0.00001   0.00008  -0.00002  -0.00005   0.00000
 127        4XZ        -0.00000  -0.00012   0.00000  -0.00002  -0.00001
 128        4YZ         0.00002   0.00009   0.00001   0.00001   0.00000
 129 11  H  1S          0.00001  -0.00005  -0.00005   0.00008  -0.00002
 130        2S         -0.00016  -0.00015   0.00014  -0.00008  -0.00018
 131        3PX         0.00000   0.00002   0.00003   0.00005  -0.00002
 132        3PY         0.00001  -0.00001   0.00001   0.00004  -0.00001
 133        3PZ        -0.00001   0.00001   0.00000  -0.00001  -0.00000
 134 12  O  1S         -0.00000  -0.00001  -0.00001   0.99267   0.00009
 135        2S         -0.00000  -0.00005  -0.00006   0.02571   0.00004
 136        2PX         0.00000   0.00008   0.00001   0.00003  -0.00000
 137        2PY        -0.00000   0.00003   0.00002  -0.00043   0.00001
 138        2PZ        -0.00000  -0.00006   0.00000   0.00091  -0.00000
 139        3S         -0.00000   0.00075   0.00024   0.01313  -0.00021
 140        3PX         0.00000  -0.00024  -0.00005  -0.00042   0.00006
 141        3PY         0.00001  -0.00008  -0.00010  -0.00017  -0.00003
 142        3PZ         0.00001   0.00022  -0.00001  -0.00016   0.00002
 143        4XX        -0.00001  -0.00019  -0.00004  -0.00832   0.00003
 144        4YY        -0.00001  -0.00006  -0.00002  -0.00828   0.00003
 145        4ZZ        -0.00001  -0.00002  -0.00004  -0.00829   0.00003
 146        4XY         0.00000  -0.00010   0.00001  -0.00002  -0.00000
 147        4XZ        -0.00000   0.00011   0.00001   0.00005   0.00001
 148        4YZ        -0.00000   0.00003   0.00001   0.00002  -0.00000
 149 13  H  1S         -0.00000  -0.00008  -0.00001   0.00040  -0.00000
 150        2S          0.00000  -0.00019   0.00003  -0.00120  -0.00011
 151        3PX         0.00000   0.00000  -0.00000   0.00011   0.00001
 152        3PY         0.00000  -0.00001   0.00001   0.00002   0.00001
 153        3PZ        -0.00000  -0.00001   0.00000   0.00006   0.00001
 154 14  O  1S          0.00001   0.00002   0.00000  -0.00001  -0.00001
 155        2S          0.00006   0.00001   0.00000   0.00016  -0.00010
 156        2PX        -0.00000  -0.00003  -0.00000  -0.00002   0.00001
 157        2PY        -0.00001   0.00002  -0.00000  -0.00001   0.00000
 158        2PZ        -0.00001   0.00017  -0.00001  -0.00002   0.00001
 159        3S         -0.00023   0.00023   0.00002  -0.00086   0.00053
 160        3PX         0.00004   0.00004   0.00001   0.00018  -0.00005
 161        3PY         0.00007   0.00001  -0.00000   0.00008  -0.00006
 162        3PZ         0.00008  -0.00031   0.00000  -0.00003  -0.00009
 163        4XX         0.00003   0.00008   0.00002   0.00012  -0.00007
 164        4YY         0.00002   0.00008  -0.00000   0.00013  -0.00006
 165        4ZZ         0.00002  -0.00015   0.00001   0.00016  -0.00006
 166        4XY        -0.00001   0.00002   0.00000  -0.00001  -0.00000
 167        4XZ        -0.00001   0.00007   0.00000  -0.00004   0.00001
 168        4YZ        -0.00001  -0.00007  -0.00000  -0.00001   0.00000
 169 15  O  1S          0.00001   0.00001  -0.00002  -0.00002  -0.00002
 170        2S         -0.00004   0.00006  -0.00011  -0.00011   0.00016
 171        2PX        -0.00010   0.00001  -0.00004  -0.00001   0.00000
 172        2PY         0.00010  -0.00000   0.00002  -0.00001   0.00001
 173        2PZ        -0.00011   0.00001   0.00002  -0.00001   0.00002
 174        3S          0.00045  -0.00021   0.00048   0.00060  -0.00087
 175        3PX         0.00018  -0.00011   0.00021   0.00011   0.00002
 176        3PY        -0.00021  -0.00001  -0.00015   0.00004  -0.00015
 177        3PZ         0.00023  -0.00005  -0.00005   0.00009  -0.00003
 178        4XX        -0.00005   0.00001  -0.00005  -0.00007   0.00015
 179        4YY        -0.00001   0.00004  -0.00008  -0.00009   0.00014
 180        4ZZ        -0.00004   0.00003  -0.00009  -0.00007   0.00014
 181        4XY         0.00010  -0.00001  -0.00003   0.00000  -0.00002
 182        4XZ        -0.00011  -0.00001  -0.00001   0.00000  -0.00000
 183        4YZ         0.00009  -0.00000   0.00000   0.00000  -0.00003
 184 16  C  1S         -0.00000  -0.00001   0.00001  -0.00000  -0.00001
 185        2S          0.00002  -0.00001   0.00014   0.00000  -0.00002
 186        2PX         0.00004   0.00001  -0.00002   0.00000   0.00007
 187        2PY         0.00000  -0.00003   0.00002  -0.00000   0.00000
 188        2PZ         0.00001   0.00003  -0.00007  -0.00001  -0.00001
 189        3S         -0.00036   0.00019  -0.00042  -0.00030  -0.00071
 190        3PX        -0.00007   0.00019  -0.00063  -0.00054  -0.00113
 191        3PY        -0.00021  -0.00021  -0.00007   0.00003  -0.00038
 192        3PZ         0.00021  -0.00020   0.00028   0.00011  -0.00015
 193        4XX        -0.00005  -0.00002  -0.00001  -0.00001  -0.00003
 194        4YY        -0.00001  -0.00006   0.00002   0.00001  -0.00001
 195        4ZZ        -0.00001  -0.00004  -0.00006  -0.00001  -0.00001
 196        4XY         0.00002   0.00001   0.00001  -0.00001   0.00001
 197        4XZ        -0.00001  -0.00001   0.00000   0.00000   0.00003
 198        4YZ        -0.00000   0.00001   0.00000  -0.00001  -0.00000
 199 17  H  1S          0.00001  -0.00003   0.00004   0.00001   0.00000
 200        2S         -0.00022  -0.00009   0.00006   0.00001  -0.00018
 201        3PX         0.00003  -0.00001  -0.00001   0.00002   0.00001
 202        3PY        -0.00002   0.00001   0.00000   0.00000  -0.00002
 203        3PZ        -0.00001   0.00001  -0.00005  -0.00001  -0.00002
 204 18  H  1S          0.00000   0.00003  -0.00002  -0.00001  -0.00007
 205        2S         -0.00021  -0.00005  -0.00015  -0.00012   0.00047
 206        3PX         0.00003   0.00000   0.00004   0.00001   0.00002
 207        3PY         0.00000  -0.00003  -0.00000  -0.00001   0.00001
 208        3PZ         0.00002   0.00001   0.00001   0.00001  -0.00003
 209 19  C  1S         -0.00001   0.00002  -0.00003  -0.00000  -0.00001
 210        2S         -0.00002   0.00008  -0.00018  -0.00003  -0.00007
 211        2PX         0.00002   0.00000   0.00004   0.00002   0.00002
 212        2PY         0.00001  -0.00002  -0.00001   0.00003   0.00001
 213        2PZ         0.00001  -0.00004  -0.00002  -0.00002   0.00001
 214        3S          0.00001  -0.00037   0.00166  -0.00015   0.00075
 215        3PX        -0.00046   0.00023  -0.00061  -0.00088  -0.00104
 216        3PY        -0.00012   0.00030  -0.00029  -0.00025  -0.00024
 217        3PZ        -0.00015   0.00061  -0.00070   0.00023   0.00015
 218        4XX         0.00001   0.00001   0.00000   0.00001   0.00003
 219        4YY        -0.00002   0.00002  -0.00005   0.00002  -0.00003
 220        4ZZ        -0.00002   0.00002   0.00000  -0.00001  -0.00002
 221        4XY        -0.00001   0.00003   0.00001  -0.00001   0.00001
 222        4XZ        -0.00001   0.00002   0.00001   0.00002  -0.00001
 223        4YZ        -0.00000   0.00001   0.00001  -0.00002  -0.00000
 224 20  C  1S         -0.00000   0.00000   0.00001  -0.00001  -0.00000
 225        2S         -0.00000  -0.00002  -0.00002  -0.00006  -0.00001
 226        2PX         0.00000  -0.00002  -0.00009  -0.00000  -0.00000
 227        2PY         0.00000   0.00002   0.00005  -0.00000   0.00000
 228        2PZ        -0.00000   0.00001  -0.00001   0.00001  -0.00000
 229        3S          0.00001   0.00034   0.00018   0.00078   0.00028
 230        3PX         0.00010  -0.00022   0.00118   0.00017   0.00023
 231        3PY         0.00005  -0.00002  -0.00027   0.00028   0.00016
 232        3PZ         0.00009   0.00022  -0.00068   0.00029   0.00018
 233        4XX        -0.00001   0.00004   0.00007  -0.00001  -0.00001
 234        4YY        -0.00000   0.00002   0.00003  -0.00001  -0.00000
 235        4ZZ         0.00001   0.00002   0.00002  -0.00001   0.00001
 236        4XY        -0.00000   0.00000   0.00004  -0.00000   0.00000
 237        4XZ         0.00000  -0.00001   0.00004  -0.00000   0.00001
 238        4YZ         0.00000   0.00000  -0.00001   0.00001   0.00001
 239 21  C  1S         -0.00000   0.00001  -0.00000  -0.00003  -0.00000
 240        2S         -0.00002   0.00004   0.00000  -0.00013  -0.00002
 241        2PX        -0.00000  -0.00000   0.00001   0.00002   0.00000
 242        2PY        -0.00000   0.00001  -0.00000  -0.00005  -0.00001
 243        2PZ        -0.00000   0.00001   0.00001   0.00000  -0.00000
 244        3S          0.00025  -0.00045   0.00012   0.00112   0.00037
 245        3PX        -0.00003   0.00023  -0.00014   0.00027   0.00019
 246        3PY        -0.00014   0.00013  -0.00015   0.00023  -0.00002
 247        3PZ        -0.00019   0.00021  -0.00010  -0.00035  -0.00020
 248        4XX        -0.00001   0.00000  -0.00002  -0.00004  -0.00000
 249        4YY         0.00000   0.00001   0.00000  -0.00005  -0.00001
 250        4ZZ         0.00000   0.00001  -0.00000  -0.00004   0.00001
 251        4XY         0.00000  -0.00000  -0.00001  -0.00000   0.00000
 252        4XZ         0.00000  -0.00001  -0.00001   0.00001  -0.00001
 253        4YZ         0.00001  -0.00001   0.00000  -0.00000   0.00001
 254 22  C  1S         -0.00000  -0.00000   0.00001   0.00000  -0.00000
 255        2S         -0.00001   0.00000   0.00004   0.00003  -0.00000
 256        2PX         0.00000   0.00001   0.00003   0.00001   0.00001
 257        2PY         0.00000  -0.00000  -0.00002  -0.00000   0.00000
 258        2PZ        -0.00000   0.00000  -0.00000   0.00000  -0.00001
 259        3S         -0.00003   0.00002  -0.00077  -0.00051  -0.00023
 260        3PX         0.00000  -0.00007   0.00056   0.00018   0.00007
 261        3PY         0.00001  -0.00004   0.00045  -0.00008   0.00001
 262        3PZ         0.00000  -0.00011   0.00019  -0.00023  -0.00003
 263        4XX         0.00000  -0.00001  -0.00003  -0.00001   0.00000
 264        4YY        -0.00000  -0.00000  -0.00000   0.00000  -0.00000
 265        4ZZ        -0.00000  -0.00000  -0.00000  -0.00000  -0.00000
 266        4XY         0.00000  -0.00001  -0.00003   0.00000   0.00000
 267        4XZ        -0.00000   0.00000   0.00000   0.00000  -0.00000
 268        4YZ         0.00000   0.00000  -0.00000  -0.00001   0.00000
 269 23  H  1S          0.00000  -0.00001   0.00013   0.00000   0.00001
 270        2S          0.00008  -0.00000  -0.00051   0.00010   0.00014
 271        3PX         0.00000   0.00000  -0.00008   0.00000  -0.00000
 272        3PY         0.00000   0.00000  -0.00003  -0.00001   0.00000
 273        3PZ         0.00000  -0.00001  -0.00002   0.00000   0.00000
 274 24  N  1S         -0.00000  -0.00000   0.00000   0.00001   0.00000
 275        2S         -0.00000  -0.00001   0.00000   0.00005   0.00001
 276        2PX         0.00000   0.00000   0.00001   0.00001   0.00000
 277        2PY        -0.00000  -0.00000  -0.00000  -0.00001   0.00000
 278        2PZ        -0.00000   0.00001   0.00000   0.00002   0.00000
 279        3S         -0.00002  -0.00000  -0.00009  -0.00062  -0.00023
 280        3PX        -0.00003   0.00002  -0.00016   0.00027   0.00008
 281        3PY         0.00002   0.00002   0.00003   0.00009   0.00003
 282        3PZ         0.00004  -0.00007   0.00010   0.00001   0.00001
 283        4XX         0.00000  -0.00001   0.00001  -0.00001   0.00000
 284        4YY        -0.00000  -0.00001  -0.00000   0.00000   0.00000
 285        4ZZ        -0.00000  -0.00001  -0.00000   0.00000   0.00001
 286        4XY         0.00000  -0.00000   0.00001   0.00000   0.00000
 287        4XZ        -0.00000   0.00000   0.00000  -0.00000  -0.00000
 288        4YZ        -0.00000   0.00000  -0.00000  -0.00001   0.00000
 289 25  H  1S         -0.00000   0.00003  -0.00001  -0.00004   0.00001
 290        2S          0.00010  -0.00010   0.00007   0.00002   0.00005
 291        3PX         0.00000  -0.00001   0.00000  -0.00000  -0.00000
 292        3PY         0.00000  -0.00000   0.00000  -0.00002   0.00000
 293        3PZ        -0.00000   0.00001  -0.00000   0.00000   0.00000
 294 26  C  1S          0.00000  -0.00000  -0.00000  -0.00001  -0.00000
 295        2S          0.00000  -0.00001  -0.00001  -0.00001  -0.00001
 296        2PX        -0.00000   0.00001   0.00001   0.00001   0.00001
 297        2PY         0.00000  -0.00000   0.00001  -0.00001   0.00000
 298        2PZ         0.00000  -0.00000  -0.00000   0.00000   0.00000
 299        3S          0.00003   0.00007  -0.00012   0.00027   0.00006
 300        3PX         0.00000  -0.00003  -0.00013  -0.00022  -0.00008
 301        3PY         0.00000  -0.00005   0.00005  -0.00007  -0.00003
 302        3PZ         0.00002  -0.00005   0.00031  -0.00005  -0.00000
 303        4XX         0.00000  -0.00001   0.00000  -0.00002  -0.00000
 304        4YY         0.00000  -0.00001   0.00000  -0.00002  -0.00000
 305        4ZZ         0.00000  -0.00000   0.00000  -0.00000  -0.00000
 306        4XY         0.00000   0.00000   0.00000   0.00000   0.00000
 307        4XZ        -0.00000   0.00000  -0.00001  -0.00000  -0.00000
 308        4YZ         0.00000   0.00000   0.00001   0.00000   0.00000
 309 27  H  1S          0.00000  -0.00001   0.00003  -0.00000   0.00000
 310        2S          0.00001  -0.00002   0.00007  -0.00007   0.00001
 311        3PX        -0.00000   0.00000  -0.00002  -0.00000  -0.00000
 312        3PY        -0.00000  -0.00000  -0.00002   0.00000  -0.00000
 313        3PZ         0.00000   0.00000   0.00000   0.00000   0.00000
 314 28  H  1S         -0.00000   0.00000   0.00002   0.00002   0.00000
 315        2S         -0.00000   0.00001   0.00005   0.00006   0.00003
 316        3PX        -0.00000  -0.00000  -0.00000  -0.00000  -0.00000
 317        3PY         0.00000   0.00000   0.00000  -0.00000  -0.00000
 318        3PZ        -0.00000   0.00000  -0.00001   0.00000   0.00000
                           6         7         8         9        10
                           O         O         O         O         O
     Eigenvalues --   -19.34269 -19.33893 -19.29790 -19.29377 -14.56509
   1 1   C  1S         -0.00001  -0.00001  -0.00001  -0.00000  -0.00000
   2        2S         -0.00010  -0.00010  -0.00009  -0.00006  -0.00000
   3        2PX        -0.00000  -0.00006  -0.00002  -0.00003   0.00000
   4        2PY         0.00003   0.00001   0.00004   0.00001  -0.00000
   5        2PZ        -0.00001   0.00002   0.00002  -0.00003  -0.00000
   6        3S          0.00057   0.00075   0.00064   0.00034   0.00004
   7        3PX        -0.00032   0.00066  -0.00016   0.00006   0.00002
   8        3PY        -0.00053   0.00022  -0.00049   0.00055  -0.00001
   9        3PZ         0.00013  -0.00030   0.00004   0.00008   0.00000
  10        4XX         0.00006  -0.00002   0.00005  -0.00002  -0.00000
  11        4YY        -0.00003   0.00003  -0.00000   0.00006   0.00000
  12        4ZZ         0.00002   0.00002   0.00002   0.00003   0.00000
  13        4XY         0.00002  -0.00000  -0.00002   0.00000  -0.00000
  14        4XZ        -0.00003   0.00001  -0.00001  -0.00001   0.00000
  15        4YZ         0.00001   0.00001  -0.00002   0.00002   0.00000
  16 2   O  1S          0.00000   0.00000  -0.00002   0.00001   0.00000
  17        2S          0.00004  -0.00001  -0.00007   0.00006   0.00000
  18        2PX        -0.00002  -0.00002   0.00003   0.00001   0.00000
  19        2PY        -0.00000  -0.00002   0.00001   0.00003   0.00000
  20        2PZ         0.00001   0.00001  -0.00001   0.00002   0.00000
  21        3S         -0.00017  -0.00011   0.00018  -0.00014  -0.00002
  22        3PX         0.00010   0.00000  -0.00017  -0.00005  -0.00000
  23        3PY         0.00004   0.00013   0.00002  -0.00013  -0.00000
  24        3PZ        -0.00013  -0.00017  -0.00002  -0.00012  -0.00001
  25        4XX         0.00003  -0.00002  -0.00001   0.00005   0.00000
  26        4YY         0.00003   0.00004  -0.00007   0.00004   0.00000
  27        4ZZ         0.00001  -0.00005  -0.00007   0.00003   0.00000
  28        4XY         0.00001  -0.00001  -0.00001   0.00000  -0.00000
  29        4XZ         0.00002  -0.00001  -0.00001  -0.00000  -0.00000
  30        4YZ         0.00001  -0.00002   0.00001  -0.00003  -0.00000
  31 3   H  1S          0.00002  -0.00002  -0.00002   0.00004  -0.00000
  32        2S         -0.00018  -0.00002   0.00007  -0.00023   0.00000
  33        3PX        -0.00000  -0.00001  -0.00002  -0.00001  -0.00000
  34        3PY         0.00000   0.00000   0.00001   0.00001   0.00000
  35        3PZ        -0.00001  -0.00002   0.00001  -0.00002  -0.00000
  36 4   P  1S          0.00001  -0.00000   0.00001  -0.00000  -0.00000
  37        2S          0.00002  -0.00003  -0.00007  -0.00004  -0.00000
  38        2PX        -0.00001   0.00000  -0.00000  -0.00000   0.00000
  39        2PY        -0.00000  -0.00001  -0.00000  -0.00000  -0.00000
  40        2PZ        -0.00006   0.00000   0.00001  -0.00001   0.00000
  41        3S          0.00054  -0.00025   0.00076  -0.00032  -0.00001
  42        3PX         0.00017  -0.00006  -0.00006  -0.00000  -0.00000
  43        3PY         0.00003   0.00005   0.00010   0.00001  -0.00000
  44        3PZ         0.00022  -0.00003  -0.00017   0.00009   0.00000
  45        4S         -0.00392   0.00138  -0.00296   0.00120   0.00003
  46        4PX        -0.00093   0.00036   0.00085   0.00032   0.00001
  47        4PY         0.00018   0.00071  -0.00171   0.00065   0.00002
  48        4PZ        -0.00196  -0.00003   0.00162   0.00007   0.00001
  49        5XX        -0.00005   0.00005  -0.00017   0.00001  -0.00000
  50        5YY        -0.00009   0.00004  -0.00023   0.00004  -0.00000
  51        5ZZ         0.00027   0.00006  -0.00020   0.00006  -0.00000
  52        5XY         0.00002  -0.00000  -0.00005   0.00003   0.00000
  53        5XZ        -0.00001   0.00003   0.00008   0.00000  -0.00000
  54        5YZ         0.00009  -0.00004  -0.00008   0.00001  -0.00000
  55 5   P  1S         -0.00000   0.00001  -0.00000   0.00002  -0.00000
  56        2S         -0.00005  -0.00002  -0.00004  -0.00004  -0.00000
  57        2PX         0.00000   0.00003   0.00001  -0.00001   0.00000
  58        2PY        -0.00000  -0.00002   0.00000   0.00001   0.00000
  59        2PZ        -0.00001   0.00006   0.00001  -0.00001   0.00000
  60        3S         -0.00030   0.00028  -0.00028   0.00096  -0.00001
  61        3PX        -0.00003  -0.00011  -0.00005   0.00001  -0.00000
  62        3PY         0.00007   0.00002  -0.00001  -0.00012  -0.00000
  63        3PZ         0.00006  -0.00024  -0.00007   0.00021  -0.00000
  64        4S          0.00153  -0.00288   0.00116  -0.00385   0.00002
  65        4PX        -0.00069   0.00079  -0.00070   0.00087   0.00005
  66        4PY        -0.00054  -0.00020  -0.00039   0.00057   0.00002
  67        4PZ         0.00019   0.00172   0.00008  -0.00215   0.00002
  68        5XX         0.00001   0.00005   0.00005  -0.00026   0.00000
  69        5YY         0.00002   0.00000   0.00003  -0.00023  -0.00000
  70        5ZZ         0.00008   0.00012   0.00004  -0.00011   0.00000
  71        5XY         0.00001  -0.00005   0.00003  -0.00003   0.00000
  72        5XZ        -0.00001   0.00020   0.00004  -0.00004  -0.00001
  73        5YZ         0.00000  -0.00012  -0.00001   0.00006  -0.00000
  74 6   O  1S         -0.00033  -0.00003   0.00009  -0.00002   0.00000
  75        2S         -0.00026  -0.00002   0.00008  -0.00004   0.00000
  76        2PX        -0.00001   0.00001   0.00001   0.00000   0.00000
  77        2PY         0.00002  -0.00000  -0.00001  -0.00001   0.00000
  78        2PZ        -0.00001  -0.00001   0.00004  -0.00000   0.00000
  79        3S          0.00154   0.00011  -0.00040   0.00017  -0.00000
  80        3PX         0.00017  -0.00003  -0.00014  -0.00001  -0.00000
  81        3PY         0.00023  -0.00001   0.00016   0.00002  -0.00000
  82        3PZ         0.00022   0.00004  -0.00028   0.00003  -0.00000
  83        4XX        -0.00014  -0.00002   0.00008  -0.00004   0.00000
  84        4YY        -0.00020  -0.00002   0.00012  -0.00004   0.00000
  85        4ZZ        -0.00026  -0.00003   0.00010  -0.00004   0.00000
  86        4XY         0.00001  -0.00000   0.00001  -0.00000  -0.00000
  87        4XZ        -0.00000  -0.00001  -0.00001  -0.00001  -0.00000
  88        4YZ        -0.00005  -0.00000   0.00000  -0.00000  -0.00000
  89 7   H  1S          0.00003  -0.00000  -0.00008   0.00000  -0.00000
  90        2S         -0.00008   0.00006   0.00020   0.00008   0.00000
  91        3PX         0.00004   0.00001  -0.00002   0.00001   0.00000
  92        3PY        -0.00002   0.00000   0.00003   0.00000   0.00000
  93        3PZ         0.00003   0.00001  -0.00003   0.00001  -0.00000
  94 8   O  1S          0.99265   0.00020   0.00006   0.00000   0.00000
  95        2S          0.02563   0.00014  -0.00000  -0.00008   0.00000
  96        2PX         0.00040   0.00000   0.00004  -0.00001  -0.00000
  97        2PY         0.00060   0.00002  -0.00005  -0.00004   0.00000
  98        2PZ        -0.00058  -0.00002   0.00002  -0.00006  -0.00000
  99        3S          0.01360  -0.00063  -0.00002   0.00039  -0.00002
 100        3PX         0.00016  -0.00003  -0.00020   0.00014  -0.00000
 101        3PY        -0.00013  -0.00009   0.00031   0.00026  -0.00000
 102        3PZ        -0.00040   0.00018  -0.00024   0.00027   0.00000
 103        4XX        -0.00833   0.00009   0.00002  -0.00003   0.00000
 104        4YY        -0.00833   0.00009   0.00002  -0.00002   0.00000
 105        4ZZ        -0.00841   0.00008   0.00007  -0.00009   0.00000
 106        4XY        -0.00001  -0.00000   0.00003   0.00003   0.00000
 107        4XZ        -0.00001   0.00000   0.00002   0.00000   0.00000
 108        4YZ         0.00000   0.00001  -0.00001  -0.00000   0.00000
 109 9   H  1S          0.00037   0.00004  -0.00008  -0.00008   0.00000
 110        2S         -0.00137  -0.00010   0.00009  -0.00090   0.00000
 111        3PX         0.00000  -0.00001   0.00001  -0.00009  -0.00000
 112        3PY         0.00006   0.00000   0.00001  -0.00007  -0.00000
 113        3PZ         0.00005   0.00000  -0.00001   0.00006  -0.00000
 114 10  O  1S         -0.00014   0.99268   0.00001   0.00005  -0.00000
 115        2S          0.00014   0.02572  -0.00008  -0.00006  -0.00001
 116        2PX        -0.00000  -0.00029   0.00006   0.00003  -0.00000
 117        2PY        -0.00001  -0.00065  -0.00001  -0.00001   0.00000
 118        2PZ         0.00003   0.00059   0.00003  -0.00005  -0.00000
 119        3S         -0.00069   0.01308   0.00038   0.00028   0.00003
 120        3PX         0.00000   0.00017  -0.00036  -0.00009   0.00001
 121        3PY         0.00012  -0.00018  -0.00006  -0.00004  -0.00001
 122        3PZ        -0.00020   0.00017  -0.00015   0.00043   0.00001
 123        4XX         0.00010  -0.00827  -0.00003  -0.00001  -0.00000
 124        4YY         0.00010  -0.00826  -0.00003  -0.00002  -0.00000
 125        4ZZ         0.00009  -0.00830  -0.00007   0.00003  -0.00000
 126        4XY        -0.00000   0.00002   0.00004   0.00001  -0.00000
 127        4XZ         0.00000  -0.00004  -0.00001   0.00003   0.00000
 128        4YZ         0.00001   0.00003   0.00001  -0.00002  -0.00000
 129 11  H  1S          0.00004   0.00037  -0.00009  -0.00009  -0.00000
 130        2S         -0.00010  -0.00142  -0.00090   0.00018   0.00001
 131        3PX         0.00000  -0.00008   0.00003  -0.00000   0.00000
 132        3PY         0.00001   0.00001   0.00012  -0.00001   0.00000
 133        3PZ         0.00000  -0.00002  -0.00002   0.00002   0.00000
 134 12  O  1S         -0.00005  -0.00018  -0.00002   0.00006  -0.00001
 135        2S         -0.00003  -0.00017  -0.00004   0.00001  -0.00003
 136        2PX         0.00000  -0.00004   0.00001  -0.00000  -0.00001
 137        2PY        -0.00001   0.00001  -0.00001  -0.00000  -0.00000
 138        2PZ         0.00000   0.00001  -0.00000  -0.00005  -0.00000
 139        3S          0.00016   0.00113   0.00021  -0.00008   0.00015
 140        3PX        -0.00001  -0.00013  -0.00007  -0.00008   0.00008
 141        3PY         0.00006  -0.00009   0.00003  -0.00005  -0.00001
 142        3PZ        -0.00002  -0.00011  -0.00001   0.00038   0.00005
 143        4XX        -0.00004  -0.00026  -0.00005   0.00009  -0.00001
 144        4YY        -0.00003  -0.00009  -0.00004   0.00005  -0.00003
 145        4ZZ        -0.00003  -0.00015  -0.00005   0.00004  -0.00001
 146        4XY        -0.00000   0.00003   0.00000   0.00000  -0.00000
 147        4XZ        -0.00001  -0.00008  -0.00001  -0.00001   0.00002
 148        4YZ         0.00000   0.00004   0.00000  -0.00003  -0.00000
 149 13  H  1S          0.00001   0.00007   0.00001  -0.00009  -0.00000
 150        2S          0.00004  -0.00017   0.00012   0.00016  -0.00019
 151        3PX        -0.00001  -0.00002  -0.00002  -0.00001   0.00002
 152        3PY         0.00000   0.00002  -0.00000  -0.00001  -0.00000
 153        3PZ        -0.00001  -0.00006  -0.00001   0.00004   0.00002
 154 14  O  1S         -0.00001  -0.00004  -0.00013   0.99267   0.00000
 155        2S          0.00005   0.00002   0.00007   0.02551   0.00000
 156        2PX         0.00001   0.00004   0.00001   0.00022   0.00000
 157        2PY         0.00001  -0.00003   0.00000  -0.00018   0.00000
[...]
 237         V                 1.986398          3.421633
 238         V                 2.040530          3.521534
 239         V                 2.040933          3.518068
 240         V                 2.055367          3.534741
 241         V                 2.076795          3.563019
 242         V                 2.101198          3.375482
 243         V                 2.112669          3.544322
 244         V                 2.139786          3.541936
 245         V                 2.148076          3.584070
 246         V                 2.172880          3.689504
 247         V                 2.181074          3.721009
 248         V                 2.188085          3.759922
 249         V                 2.198274          3.750032
 250         V                 2.213588          3.652811
 251         V                 2.217174          3.415670
 252         V                 2.235581          3.803502
 253         V                 2.242465          3.866585
 254         V                 2.257300          3.803698
 255         V                 2.269318          3.852425
 256         V                 2.294544          3.780258
 257         V                 2.307104          3.942674
 258         V                 2.336915          4.224739
 259         V                 2.338481          3.941153
 260         V                 2.347937          3.804947
 261         V                 2.356410          4.442554
 262         V                 2.366712          3.713326
 263         V                 2.417999          3.943317
 264         V                 2.447086          3.855656
 265         V                 2.450361          3.788860
 266         V                 2.457216          3.731303
 267         V                 2.464168          3.625102
 268         V                 2.465493          3.650441
 269         V                 2.474860          3.941795
 270         V                 2.484841          3.981627
 271         V                 2.492559          3.961057
 272         V                 2.502124          3.897874
 273         V                 2.516599          4.014319
 274         V                 2.533413          3.943767
 275         V                 2.549952          4.239431
 276         V                 2.556807          4.014462
 277         V                 2.566464          4.230512
 278         V                 2.616834          4.374715
 279         V                 2.626329          4.070675
 280         V                 2.640102          4.303426
 281         V                 2.663197          4.408130
 282         V                 2.677242          4.272735
 283         V                 2.688555          4.494139
 284         V                 2.706955          4.554776
 285         V                 2.736294          4.138376
 286         V                 2.807316          4.495008
 287         V                 2.840337          4.687006
 288         V                 2.888782          4.663319
 289         V                 3.015427          5.098212
 290         V                 3.062300          4.891514
 291         V                 3.092141          4.977937
 292         V                 3.129117          5.094438
 293         V                 3.203940          6.412736
 294         V                 3.213908          5.205761
 295         V                 3.241922          6.702639
 296         V                 3.248430          6.092277
 297         V                 3.267167          5.482152
 298         V                 3.273689          5.804778
 299         V                 3.295592          5.810092
 300         V                 3.316989          5.360339
 301         V                 3.364618         10.138378
 302         V                 3.371691          9.665275
 303         V                 3.612053          6.213470
 304         V                 3.655363          9.224004
 305         V                 3.720391          9.892581
 306         V                 3.843878         10.686028
 307         V                 3.910432         10.063078
 308         V                 3.949675         10.118909
 309         V                 3.974305         10.746530
 310         V                 4.016742         10.162418
 311         V                 4.029410         10.360159
 312         V                 4.106135         10.417341
 313         V                 4.135258         10.861668
 314         V                 4.150525         10.150493
 315         V                 4.200459         10.629009
 316         V                 4.298866         10.179823
 317         V                 4.468619         10.487199
 318         V                 4.587573         10.215962
 Total kinetic energy from orbitals= 1.526835601286D+03
                          Isotropic Fermi Contact Couplings
        Atom                 a.u.       MegaHertz       Gauss      10(-4) cm-1
     1  C(13)             -0.00555      -6.23572      -2.22506      -2.08001
     2  O(17)              0.02388     -14.47892      -5.16644      -4.82965
     3  H(1)              -0.00212      -9.49676      -3.38868      -3.16778
     4  P(31)              0.01332      24.11682       8.60548       8.04451
     5  P(31)              0.00472       8.55328       3.05202       2.85307
     6  O(17)              0.00105      -0.63752      -0.22748      -0.21265
     7  H(1)              -0.00024      -1.09004      -0.38895      -0.36360
     8  O(17)              0.00160      -0.96717      -0.34511      -0.32261
     9  H(1)              -0.00053      -2.34749      -0.83764      -0.78304
    10  O(17)             -0.00142       0.85922       0.30659       0.28660
    11  H(1)              -0.00028      -1.27361      -0.45446      -0.42483
    12  O(17)              0.00054      -0.32652      -0.11651      -0.10891
    13  H(1)              -0.00015      -0.65215      -0.23270      -0.21753
    14  O(17)              0.00333      -2.01603      -0.71937      -0.67248
    15  O(17)              0.00680      -4.12203      -1.47084      -1.37496
    16  C(13)             -0.00624      -7.01786      -2.50415      -2.34090
    17  H(1)               0.00228      10.17666       3.63128       3.39457
    18  H(1)              -0.00010      -0.45421      -0.16207      -0.15151
    19  C(13)             -0.00263      -2.95191      -1.05331      -0.98465
    20  C(13)             -0.00746      -8.38631      -2.99244      -2.79737
    21  C(13)             -0.00674      -7.57161      -2.70174      -2.52562
    22  C(13)              0.00722       8.11639       2.89613       2.70734
    23  H(1)               0.00557      24.90707       8.88746       8.30811
    24  N(14)              0.21193      68.47469      24.43347      22.84070
    25  H(1)               0.00455      20.33662       7.25661       6.78357
    26  C(13)              0.00027       0.29796       0.10632       0.09939
    27  H(1)               0.00098       4.36274       1.55674       1.45525
    28  H(1)               0.00782      34.97192      12.47885      11.66538
 --------------------------------------------------------
       Center         ----  Spin Dipole Couplings  ----
                      3XX-RR        3YY-RR        3ZZ-RR
 --------------------------------------------------------
     1   Atom        0.104084     -0.023396     -0.080688
     2   Atom        0.291793     -0.010436     -0.281358
     3   Atom       -0.000408      0.002675     -0.002266
     4   Atom        0.127853     -0.068773     -0.059080
     5   Atom       -0.024024      0.045753     -0.021730
     6   Atom       -0.008712      0.026137     -0.017425
     7   Atom        0.000007      0.000013     -0.000020
     8   Atom        0.075954     -0.076817      0.000863
     9   Atom       -0.001718      0.003690     -0.001972
    10   Atom       -0.030112      0.045729     -0.015617
    11   Atom        0.002832      0.001597     -0.004429
    12   Atom        0.002142      0.021430     -0.023572
    13   Atom        0.001673      0.000579     -0.002252
    14   Atom       -0.082258      0.174037     -0.091778
    15   Atom        0.316450     -0.144050     -0.172400
    16   Atom        0.033138     -0.018319     -0.014819
    17   Atom       -0.000790      0.004186     -0.003397
    18   Atom        0.001886     -0.003873      0.001988
    19   Atom        0.044617     -0.051822      0.007205
    20   Atom        0.012612     -0.017783      0.005172
    21   Atom       -0.005989      0.057144     -0.051155
    22   Atom       -0.039798      0.070351     -0.030553
    23   Atom        0.001794     -0.002220      0.000426
    24   Atom       -0.112888     -0.046342      0.159229
    25   Atom        0.004529     -0.009469      0.004939
    26   Atom       -0.024237     -0.059417      0.083653
    27   Atom       -0.001850     -0.003131      0.004981
    28   Atom        0.007202     -0.005706     -0.001496
 --------------------------------------------------------
                        XY            XZ            YZ
 --------------------------------------------------------
     1   Atom        0.109224      0.006920      0.004384
     2   Atom        0.399968     -0.007935     -0.009797
     3   Atom       -0.008919      0.012293     -0.017143
     4   Atom       -0.015486     -0.032008      0.007913
     5   Atom       -0.016778     -0.007233      0.034513
     6   Atom        0.043845     -0.023239     -0.035743
     7   Atom        0.002879      0.002007      0.000604
     8   Atom       -0.012714     -0.111184      0.010698
     9   Atom        0.004079     -0.001609      0.003943
    10   Atom       -0.001716      0.000546     -0.033767
    11   Atom        0.001246      0.000615     -0.001815
    12   Atom        0.031906     -0.003006     -0.005400
    13   Atom       -0.001354      0.003185     -0.001957
    14   Atom       -0.062619     -0.010181      0.048756
    15   Atom        0.119708     -0.004159      0.001785
    16   Atom        0.005336      0.013590      0.000046
    17   Atom       -0.000924      0.001197     -0.001485
    18   Atom        0.000289     -0.000427     -0.001751
    19   Atom       -0.001709      0.085557     -0.001483
    20   Atom        0.015932     -0.001393      0.019774
    21   Atom        0.072220      0.004284      0.025392
    22   Atom        0.025911      0.009897      0.031606
    23   Atom       -0.000363      0.000347      0.002349
    24   Atom        0.253900      0.359454      0.334885
    25   Atom        0.002445     -0.009034     -0.001287
    26   Atom       -0.000223      0.027735     -0.001699
    27   Atom       -0.000259     -0.005978      0.002618
    28   Atom        0.005892     -0.010770     -0.001578
 --------------------------------------------------------


 ---------------------------------------------------------------------------------
              Anisotropic Spin Dipole Couplings in Principal Axis System
 ---------------------------------------------------------------------------------

       Atom             a.u.   MegaHertz   Gauss  10(-4) cm-1        Axes

              Baa    -0.0861   -11.560    -4.125    -3.856 -0.4949  0.8663 -0.0684
     1 C(13)  Bbb    -0.0809   -10.861    -3.875    -3.623 -0.0626  0.0429  0.9971
              Bcc     0.1671    22.420     8.000     7.479  0.8667  0.4978  0.0330
 
              Baa    -0.2887    20.887     7.453     6.967 -0.5038  0.7399  0.4458
     2 O(17)  Bbb    -0.2798    20.243     7.223     6.752  0.2640 -0.3595  0.8950
              Bcc     0.5684   -41.130   -14.676   -13.720  0.8225  0.5686 -0.0142
 
              Baa    -0.0181    -9.680    -3.454    -3.229 -0.2832  0.5345  0.7963
     3 H(1)   Bbb    -0.0078    -4.150    -1.481    -1.384  0.8225  0.5624 -0.0850
              Bcc     0.0259    13.830     4.935     4.613 -0.4933  0.6309 -0.5989
 
              Baa    -0.0732   -15.833    -5.650    -5.281 -0.0160  0.8570 -0.5151
     4 P(31)  Bbb    -0.0613   -13.251    -4.728    -4.420  0.1840  0.5089  0.8409
              Bcc     0.1345    29.084    10.378     9.701  0.9828 -0.0813 -0.1658
 
              Baa    -0.0363    -7.838    -2.797    -2.615  0.0180 -0.3847  0.9229
     5 P(31)  Bbb    -0.0278    -6.012    -2.145    -2.005  0.9790  0.1943  0.0619
              Bcc     0.0641    13.850     4.942     4.620 -0.2031  0.9024  0.3801
 
              Baa    -0.0388     2.807     1.002     0.936  0.6719 -0.6496 -0.3559
     6 O(17)  Bbb    -0.0367     2.653     0.947     0.885  0.5392  0.0995  0.8363
              Bcc     0.0755    -5.460    -1.948    -1.821  0.5078  0.7538 -0.4171
 
              Baa    -0.0032    -1.728    -0.617    -0.576  0.7332 -0.5845 -0.3474
     7 H(1)   Bbb    -0.0006    -0.307    -0.109    -0.102 -0.0581 -0.5630  0.8244
              Bcc     0.0038     2.035     0.726     0.679  0.6775  0.5843  0.4468
 
              Baa    -0.0798     5.776     2.061     1.927  0.4466 -0.5686  0.6908
     8 O(17)  Bbb    -0.0771     5.579     1.991     1.861  0.3798  0.8196  0.4291
              Bcc     0.1569   -11.356    -4.052    -3.788  0.8101 -0.0707 -0.5820
 
              Baa    -0.0066    -3.514    -1.254    -1.172  0.6119 -0.4832  0.6262
     9 H(1)   Bbb    -0.0002    -0.127    -0.045    -0.042 -0.7062  0.0230  0.7077
              Bcc     0.0068     3.641     1.299     1.215  0.3563  0.8752  0.3271
 
              Baa    -0.0306     2.217     0.791     0.740  0.3684  0.3829  0.8472
    10 O(17)  Bbb    -0.0301     2.176     0.776     0.726  0.9295 -0.1323 -0.3443
              Bcc     0.0607    -4.393    -1.568    -1.465 -0.0197  0.9143 -0.4046
 
              Baa    -0.0050    -2.692    -0.960    -0.898 -0.1190  0.2824  0.9519
    11 H(1)   Bbb     0.0014     0.753     0.269     0.251 -0.5525  0.7777 -0.2998
              Bcc     0.0036     1.938     0.692     0.647  0.8250  0.5616 -0.0635
 
              Baa    -0.0243     1.762     0.629     0.588 -0.1709  0.2321  0.9575
    12 O(17)  Bbb    -0.0213     1.542     0.550     0.514  0.7869 -0.5527  0.2745
              Bcc     0.0457    -3.304    -1.179    -1.102  0.5929  0.8004 -0.0882
 
              Baa    -0.0043    -2.288    -0.816    -0.763 -0.4153  0.2376  0.8781
    13 H(1)   Bbb    -0.0003    -0.176    -0.063    -0.059  0.5337  0.8453  0.0237
              Bcc     0.0046     2.464     0.879     0.822  0.7367 -0.4785  0.4778
 
              Baa    -0.1006     7.283     2.599     2.429 -0.2163 -0.2182  0.9516
    14 O(17)  Bbb    -0.0965     6.980     2.490     2.328  0.9509  0.1740  0.2560
              Bcc     0.1971   -14.262    -5.089    -4.757 -0.2214  0.9603  0.1699
 
              Baa    -0.1756    12.708     4.535     4.239 -0.1852  0.7389 -0.6479
    15 O(17)  Bbb    -0.1701    12.309     4.392     4.106 -0.1487  0.6307  0.7617
              Bcc     0.3457   -25.017    -8.927    -8.345  0.9714  0.2374 -0.0070
 
              Baa    -0.0199    -2.674    -0.954    -0.892 -0.2329  0.7552  0.6127
    16 C(13)  Bbb    -0.0173    -2.318    -0.827    -0.773 -0.1333 -0.6489  0.7491
              Bcc     0.0372     4.992     1.781     1.665  0.9633  0.0928  0.2517
 
              Baa    -0.0040    -2.137    -0.763    -0.713 -0.3111  0.1354  0.9407
    17 H(1)   Bbb    -0.0007    -0.373    -0.133    -0.124  0.9279  0.2574  0.2698
              Bcc     0.0047     2.510     0.896     0.837 -0.2056  0.9568 -0.2057
 
              Baa    -0.0044    -2.327    -0.830    -0.776 -0.0266  0.9641  0.2641
    18 H(1)   Bbb     0.0016     0.860     0.307     0.287  0.8690 -0.1083  0.4829
              Bcc     0.0027     1.466     0.523     0.489 -0.4942 -0.2424  0.8349
 
              Baa    -0.0617    -8.275    -2.953    -2.760 -0.6270  0.0085  0.7790
    19 C(13)  Bbb    -0.0519    -6.958    -2.483    -2.321  0.0160  0.9999  0.0020
              Bcc     0.1135    15.233     5.436     5.081  0.7789 -0.0137  0.6270
 
              Baa    -0.0338    -4.534    -1.618    -1.513 -0.3034  0.8453 -0.4398
    20 C(13)  Bbb     0.0105     1.404     0.501     0.468 -0.6514  0.1529  0.7432
              Bcc     0.0233     3.131     1.117     1.044  0.6955  0.5120  0.5042
 
              Baa    -0.0642    -8.613    -3.073    -2.873  0.5156 -0.4584  0.7239
    21 C(13)  Bbb    -0.0437    -5.868    -2.094    -1.957 -0.6704  0.3103  0.6740
              Bcc     0.1079    14.480     5.167     4.830  0.5336  0.8328  0.1473
 
              Baa    -0.0466    -6.260    -2.234    -2.088  0.9281 -0.1094 -0.3558
    22 C(13)  Bbb    -0.0389    -5.218    -1.862    -1.740  0.3036 -0.3306  0.8936
              Bcc     0.0855    11.477     4.095     3.828  0.2154  0.9374  0.2736
 
              Baa    -0.0036    -1.940    -0.692    -0.647  0.0897  0.8589 -0.5043
    23 H(1)   Bbb     0.0017     0.907     0.324     0.303  0.6444 -0.4361 -0.6281
              Bcc     0.0019     1.033     0.369     0.345  0.7594  0.2686  0.5926
 
              Baa    -0.3650   -14.077    -5.023    -4.696  0.8630 -0.2000 -0.4640
    24 N(14)  Bbb    -0.2929   -11.298    -4.031    -3.769 -0.0974  0.8352 -0.5412
              Bcc     0.6579    25.375     9.054     8.464  0.4958  0.5122  0.7013
 
              Baa    -0.0099    -5.277    -1.883    -1.760 -0.1831  0.9827 -0.0262
    25 H(1)   Bbb    -0.0042    -2.228    -0.795    -0.743  0.6919  0.1478  0.7067
              Bcc     0.0141     7.504     2.678     2.503 -0.6984 -0.1112  0.7070
 
              Baa    -0.0594    -7.976    -2.846    -2.660 -0.0036  0.9999  0.0126
    26 C(13)  Bbb    -0.0309    -4.153    -1.482    -1.385  0.9719  0.0064 -0.2351
              Bcc     0.0904    12.129     4.328     4.046  0.2352 -0.0114  0.9719
 
              Baa    -0.0058    -3.113    -1.111    -1.038  0.7439 -0.4266  0.5144
    27 H(1)   Bbb    -0.0031    -1.651    -0.589    -0.551  0.4658  0.8829  0.0586
              Bcc     0.0089     4.764     1.700     1.589 -0.4792  0.1960  0.8555
 
              Baa    -0.0101    -5.375    -1.918    -1.793  0.5694 -0.5461  0.6145
    28 H(1)   Bbb    -0.0059    -3.168    -1.130    -1.057  0.1268  0.7969  0.5907
              Bcc     0.0160     8.543     3.048     2.850  0.8122  0.2584 -0.5230
 

 ---------------------------------------------------------------------------------


 Test job not archived.
 1\1\GINC-BATAGIN2\SP\UB3LYP\6-31G(d,p)\C7H11N1O7P2(1+,2)\ORISON\22-Jan
 -2021\0\\#t B3LYP/6-31G(d,p) # Gfinput IOP(6/7=3) Pop=hirshfeld Densit
 y Test # Units(Ang,Deg)\\risendronate-opt-g09.log\\1,2\C,0,0.61352,0.3
 651,-0.31802\O,0,0.43733,0.71687,-1.68379\H,0,0.90785,0.06818,-2.23002
 \P,0,2.39156,0.69457,0.16221\P,0,0.4717,-1.47913,-0.04612\O,0,2.6424,2
 .28176,0.08758\H,0,3.16723,2.5059,-0.69487\O,0,2.47343,0.44675,1.73759
 \H,0,2.03466,-0.41641,1.94181\O,0,1.39449,-2.07287,-1.21477\H,0,2.2904
 1,-1.65614,-1.1569\O,0,-0.9389,-2.04141,-0.55502\H,0,-1.64571,-1.9056,
 0.0961\O,0,0.84212,-1.75517,1.37924\O,0,3.26924,-0.11979,-0.74201\C,0,
 -0.36783,1.20581,0.52548\H,0,-0.17405,2.25311,0.26867\H,0,-0.11361,1.0
 8176,1.58103\C,0,-1.82642,0.87339,0.30767\C,0,-2.51331,1.23913,-0.8569
 6\C,0,-2.54452,0.15829,1.27656\C,0,-3.8479,0.8712,-0.99945\H,0,-2.0000
 4,1.79063,-1.63756\N,0,-3.82376,-0.21985,1.14629\H,0,-2.05591,-0.12731
 ,2.20867\C,0,-4.45543,0.13736,0.0217\H,0,-4.40953,1.13947,-1.88858\H,0
 ,-5.49345,-0.17694,-0.06634\\Version=EM64L-G16RevA.03\State=2-A\HF=-15
 37.2221319\S2=0.753893\S2-1=0.\S2A=0.750013\RMSD=4.537e-09\Dipole=-2.6
 295114,1.6076073,-0.8990157\Quadrupole=19.1458915,-10.5980451,-8.54784
 64,2.1647569,-0.8816637,-4.3853971\PG=C01 [X(C7H11N1O7P2)]\\@


 I CLAIM NOT TO HAVE CONTROLLED EVENTS,
 BUT CONFESS PLAINLY THAT EVENTS HAVE CONTROLLED ME.

                                         A. LINCOLN
 Job cpu time:       0 days  0 hours 30 minutes  0.8 seconds.
 Elapsed time:       0 days  0 hours  3 minutes 45.2 seconds.
 File lengths (MBytes):  RWF=     99 Int=      0 D2E=      0 Chk=      8 Scr=      1
 Normal termination of Gaussian 16 at Fri Jan 22 02:35:41 2021.
