 Entering Gaussian System, Link 0=g09
 Input=pda-3_opt_g09.com
 Output=pda-3_opt_g09.log
 Initial command:
 /opt/gridunesp/dist/gaussian/g09/l1.exe /store/rheinheimer/2838056/Gau-12608.inp -scrdir=/store/rheinheimer/2838056/
 Entering Link 1 = /opt/gridunesp/dist/gaussian/g09/l1.exe PID=     12610.
  
 Copyright (c) 1988,1990,1992,1993,1995,1998,2003,2009, Gaussian, Inc.
                  All Rights Reserved.
  
 This is part of the Gaussian(R) 09 program.  It is based on
 the Gaussian(R) 03 system (copyright 2003, Gaussian, Inc.),
 the Gaussian(R) 98 system (copyright 1998, Gaussian, Inc.),
 the Gaussian(R) 94 system (copyright 1995, Gaussian, Inc.),
 the Gaussian 92(TM) system (copyright 1992, Gaussian, Inc.),
 the Gaussian 90(TM) system (copyright 1990, Gaussian, Inc.),
 the Gaussian 88(TM) system (copyright 1988, Gaussian, Inc.),
 the Gaussian 86(TM) system (copyright 1986, Carnegie Mellon
 University), and the Gaussian 82(TM) system (copyright 1983,
 Carnegie Mellon University). Gaussian is a federally registered
 trademark of Gaussian, Inc.
  
 This software contains proprietary and confidential information,
 including trade secrets, belonging to Gaussian, Inc.
  
 This software is provided under written license and may be
 used, copied, transmitted, or stored only in accord with that
 written license.
  
 The following legend is applicable only to US Government
 contracts under FAR:
  
                    RESTRICTED RIGHTS LEGEND
  
 Use, reproduction and disclosure by the US Government is
 subject to restrictions as set forth in subparagraphs (a)
 and (c) of the Commercial Computer Software - Restricted
 Rights clause in FAR 52.227-19.
  
 Gaussian, Inc.
 340 Quinnipiac St., Bldg. 40, Wallingford CT 06492
  
  
 ---------------------------------------------------------------
 Warning -- This program may not be used in any manner that
 competes with the business of Gaussian, Inc. or will provide
 assistance to any competitor of Gaussian, Inc.  The licensee
 of this program is prohibited from giving any competitor of
 Gaussian, Inc. access to this program.  By using this program,
 the user acknowledges that Gaussian, Inc. is engaged in the
 business of creating and licensing software in the field of
 computational chemistry and represents and warrants to the
 licensee that it is not a competitor of Gaussian, Inc. and that
 it will not use this program in any manner prohibited above.
 ---------------------------------------------------------------
  

 Cite this work as:
 Gaussian 09, Revision A.02,
 M. J. Frisch, G. W. Trucks, H. B. Schlegel, G. E. Scuseria, 
 M. A. Robb, J. R. Cheeseman, G. Scalmani, V. Barone, B. Mennucci, 
 G. A. Petersson, H. Nakatsuji, M. Caricato, X. Li, H. P. Hratchian, 
 A. F. Izmaylov, J. Bloino, G. Zheng, J. L. Sonnenberg, M. Hada, 
 M. Ehara, K. Toyota, R. Fukuda, J. Hasegawa, M. Ishida, T. Nakajima, 
 Y. Honda, O. Kitao, H. Nakai, T. Vreven, J. A. Montgomery, Jr., 
 J. E. Peralta, F. Ogliaro, M. Bearpark, J. J. Heyd, E. Brothers, 
 K. N. Kudin, V. N. Staroverov, R. Kobayashi, J. Normand, 
 K. Raghavachari, A. Rendell, J. C. Burant, S. S. Iyengar, J. Tomasi, 
 M. Cossi, N. Rega, J. M. Millam, M. Klene, J. E. Knox, J. B. Cross, 
 V. Bakken, C. Adamo, J. Jaramillo, R. Gomperts, R. E. Stratmann, 
 O. Yazyev, A. J. Austin, R. Cammi, C. Pomelli, J. W. Ochterski, 
 R. L. Martin, K. Morokuma, V. G. Zakrzewski, G. A. Voth, 
 P. Salvador, J. J. Dannenberg, S. Dapprich, A. D. Daniels, 
 O. Farkas, J. B. Foresman, J. V. Ortiz, J. Cioslowski, 
 and D. J. Fox, Gaussian, Inc., Wallingford CT, 2009.
 
 ******************************************
 Gaussian 09:  EM64L-G09RevA.02 11-Jun-2009
                14-Mar-2022 
 ******************************************
 %nproc=8
 Will use up to    8 processors via shared memory.
 %Mem=4GB
 ----------------------------------------------------------------------
 #P B3LYP/6-31G(d,p) # Opt=tight SCRF=(Solvent=Water) # Gfinput IOP(6/7
 =3) Pop=full Density Test # Units(Ang,Deg)
 ----------------------------------------------------------------------
 1/7=10,14=-1,18=20,19=15,26=3,38=1/1,3;
 2/9=110,12=2,17=6,18=5,40=1/2;
 3/5=1,6=6,7=101,11=2,16=1,24=10,25=1,30=1,70=2201,71=1,72=1,74=-5/1,2,3;
 4//1;
 5/5=2,38=5,53=1/2;
 6/7=3,22=-1,28=1/1;
 7//1,2,3,16;
 1/7=10,14=-1,18=20,19=15/3(2);
 2/9=110/2;
 99//99;
 2/9=110/2;
 3/5=1,6=6,7=101,11=2,16=1,25=1,30=1,70=2205,71=1,72=1,74=-5/1,2,3;
 4/5=5,16=3/1;
 5/5=2,38=5,53=1/2;
 7//1,2,3,16;
 1/7=10,14=-1,18=20,19=15/3(-5);
 2/9=110/2;
 6/7=3,19=2,22=-1,28=1/1;
 99/9=1/99;
 Leave Link    1 at Mon Mar 14 13:35:06 2022, MaxMem=  536870912 cpu:       0.7
 (Enter /opt/gridunesp/dist/gaussian/g09/l101.exe)
 -------------------
 Title Card Required
 -------------------
 Symbolic Z-matrix:
 Charge =  0 Multiplicity = 1
 C                    -3.0994    0.49327   0.04898 
 C                    -2.58836   1.21841   1.30779 
 H                    -2.945     2.22723   1.30778 
 C                    -2.58608  -0.95866   0.04898 
 H                    -1.51608  -0.95867   0.05093 
 C                    -3.09712  -1.6838   -1.20983 
 H                    -2.73885  -1.17884  -2.08251 
 C                    -2.58381  -3.13574  -1.20983 
 C                    -3.09485  -3.86088  -2.46865 
 C                    -2.58154  -5.31281  -2.46865 
 H                    -1.51155  -5.31283  -2.47353 
 C                    -3.10062  -6.04079  -3.72252 
 H                    -2.74439  -5.54033  -4.59861 
 C                    -2.59243  -7.49452  -3.71936 
 C                    -3.11083  -8.22226  -4.97365 
 H                    -2.75811  -9.23245  -4.97123 
 
 NAtoms=     16 NQM=     16 NQMF=      0 NMic=      0 NMicF=      0 NTot=     16.
                    Isotopes and Nuclear Properties:
 (Nuclear quadrupole moments (NQMom) in fm**2, nuclear magnetic moments (NMagM)
  in nuclear magnetons)

  Atom         1           2           3           4           5           6           7           8           9          10
 IAtWgt=          12          12           1          12           1          12           1          12          12          12
 AtmWgt=  12.0000000  12.0000000   1.0078250  12.0000000   1.0078250  12.0000000   1.0078250  12.0000000  12.0000000  12.0000000
 NucSpn=           0           0           1           0           1           0           1           0           0           0
 AtZEff=   0.0000000   0.0000000   0.0000000   0.0000000   0.0000000   0.0000000   0.0000000   0.0000000   0.0000000   0.0000000
 NQMom=    0.0000000   0.0000000   0.0000000   0.0000000   0.0000000   0.0000000   0.0000000   0.0000000   0.0000000   0.0000000
 NMagM=    0.0000000   0.0000000   2.7928460   0.0000000   2.7928460   0.0000000   2.7928460   0.0000000   0.0000000   0.0000000

  Atom        11          12          13          14          15          16
 IAtWgt=           1          12           1          12          12           1
 AtmWgt=   1.0078250  12.0000000   1.0078250  12.0000000  12.0000000   1.0078250
 NucSpn=           1           0           1           0           0           1
 AtZEff=   0.0000000   0.0000000   0.0000000   0.0000000   0.0000000   0.0000000
 NQMom=    0.0000000   0.0000000   0.0000000   0.0000000   0.0000000   0.0000000
 NMagM=    2.7928460   0.0000000   2.7928460   0.0000000   0.0000000   2.7928460
 Leave Link  101 at Mon Mar 14 13:35:07 2022, MaxMem=  536870912 cpu:       0.5
 (Enter /opt/gridunesp/dist/gaussian/g09/l103.exe)

 GradGradGradGradGradGradGradGradGradGradGradGradGradGradGradGradGradGrad
 Berny optimization.
 Initialization pass.
                           ----------------------------
                           !    Initial Parameters    !
                           ! (Angstroms and Degrees)  !
 --------------------------                            --------------------------
 ! Name  Definition              Value          Derivative Info.                !
 --------------------------------------------------------------------------------
 ! R1    R(1,2)                  1.54           estimate D2E/DX2                !
 ! R2    R(1,4)                  1.54           estimate D2E/DX2                !
 ! R3    R(2,3)                  1.07           estimate D2E/DX2                !
 ! R4    R(4,5)                  1.07           estimate D2E/DX2                !
 ! R5    R(4,6)                  1.54           estimate D2E/DX2                !
 ! R6    R(6,7)                  1.07           estimate D2E/DX2                !
 ! R7    R(6,8)                  1.54           estimate D2E/DX2                !
 ! R8    R(8,9)                  1.54           estimate D2E/DX2                !
 ! R9    R(9,10)                 1.54           estimate D2E/DX2                !
 ! R10   R(10,11)                1.07           estimate D2E/DX2                !
 ! R11   R(10,12)                1.54           estimate D2E/DX2                !
 ! R12   R(12,13)                1.07           estimate D2E/DX2                !
 ! R13   R(12,14)                1.54           estimate D2E/DX2                !
 ! R14   R(14,15)                1.54           estimate D2E/DX2                !
 ! R15   R(15,16)                1.07           estimate D2E/DX2                !
 ! A1    A(2,1,4)              109.4712         estimate D2E/DX2                !
 ! A2    A(1,2,3)              109.4712         estimate D2E/DX2                !
 ! A3    A(1,4,5)              109.4712         estimate D2E/DX2                !
 ! A4    A(1,4,6)              109.4712         estimate D2E/DX2                !
 ! A5    A(5,4,6)              109.4712         estimate D2E/DX2                !
 ! A6    A(4,6,7)              109.4712         estimate D2E/DX2                !
 ! A7    A(4,6,8)              109.4712         estimate D2E/DX2                !
 ! A8    A(7,6,8)              109.4713         estimate D2E/DX2                !
 ! A9    A(6,8,9)              109.4712         estimate D2E/DX2                !
 ! A10   A(8,9,10)             109.4712         estimate D2E/DX2                !
 ! A11   A(9,10,11)            109.4714         estimate D2E/DX2                !
 ! A12   A(9,10,12)            109.4711         estimate D2E/DX2                !
 ! A13   A(11,10,12)           109.4713         estimate D2E/DX2                !
 ! A14   A(10,12,13)           109.4712         estimate D2E/DX2                !
 ! A15   A(10,12,14)           109.4712         estimate D2E/DX2                !
 ! A16   A(13,12,14)           109.4712         estimate D2E/DX2                !
 ! A17   A(12,14,15)           109.4712         estimate D2E/DX2                !
 ! A18   A(14,15,16)           109.4712         estimate D2E/DX2                !
 ! D1    D(4,1,2,3)            179.9989         estimate D2E/DX2                !
 ! D2    D(2,1,4,5)            -59.9999         estimate D2E/DX2                !
 ! D3    D(2,1,4,6)           -179.9999         estimate D2E/DX2                !
 ! D4    D(1,4,6,7)             60.0001         estimate D2E/DX2                !
 ! D5    D(1,4,6,8)           -179.9999         estimate D2E/DX2                !
 ! D6    D(5,4,6,7)            -59.9999         estimate D2E/DX2                !
 ! D7    D(5,4,6,8)             60.0001         estimate D2E/DX2                !
 ! D8    D(4,6,8,9)           -179.9998         estimate D2E/DX2                !
 ! D9    D(7,6,8,9)            -59.9998         estimate D2E/DX2                !
 ! D10   D(6,8,9,10)          -179.9999         estimate D2E/DX2                !
 ! D11   D(8,9,10,11)          -60.3891         estimate D2E/DX2                !
 ! D12   D(8,9,10,12)          179.6108         estimate D2E/DX2                !
 ! D13   D(9,10,12,13)          60.2477         estimate D2E/DX2                !
 ! D14   D(9,10,12,14)        -179.7523         estimate D2E/DX2                !
 ! D15   D(11,10,12,13)        -59.7524         estimate D2E/DX2                !
 ! D16   D(11,10,12,14)         60.2476         estimate D2E/DX2                !
 ! D17   D(10,12,14,15)       -179.9669         estimate D2E/DX2                !
 ! D18   D(13,12,14,15)        -59.9669         estimate D2E/DX2                !
 ! D19   D(12,14,15,16)       -179.9737         estimate D2E/DX2                !
 --------------------------------------------------------------------------------
 Trust Radius=3.00D-01 FncErr=1.00D-07 GrdErr=1.00D-06
 Number of steps in this run=  62 maximum allowed number of steps= 100.
 GradGradGradGradGradGradGradGradGradGradGradGradGradGradGradGradGradGrad

 Leave Link  103 at Mon Mar 14 13:35:07 2022, MaxMem=  536870912 cpu:       0.1
 (Enter /opt/gridunesp/dist/gaussian/g09/l202.exe)
                          Input orientation:                          
 ---------------------------------------------------------------------
 Center     Atomic      Atomic             Coordinates (Angstroms)
 Number     Number       Type             X           Y           Z
 ---------------------------------------------------------------------
      1          6           0       -3.099399    0.493272    0.048976
      2          6           0       -2.588357    1.218415    1.307786
      3          1           0       -2.944995    2.227230    1.307777
      4          6           0       -2.586083   -0.958661    0.048976
      5          1           0       -1.516085   -0.958674    0.050933
      6          6           0       -3.097124   -1.683803   -1.209835
      7          1           0       -2.738853   -1.178840   -2.082506
      8          6           0       -2.583810   -3.135736   -1.209834
      9          6           0       -3.094846   -3.860876   -2.468648
     10          6           0       -2.581536   -5.312810   -2.468646
     11          1           0       -1.511547   -5.312834   -2.473535
     12          6           0       -3.100620   -6.040791   -3.722519
     13          1           0       -2.744386   -5.540331   -4.598611
     14          6           0       -2.592428   -7.494521   -3.719359
     15          6           0       -3.110827   -8.222264   -4.973653
     16          1           0       -2.758111   -9.232455   -4.971225
 ---------------------------------------------------------------------
                    Distance matrix (angstroms):
                    1          2          3          4          5
     1  C    0.000000
     2  C    1.540000   0.000000
     3  H    2.148263   1.070000   0.000000
     4  C    1.540000   2.514809   3.444314   0.000000
     5  H    2.148263   2.732977   3.710988   1.070000   0.000000
     6  C    2.514809   3.875581   4.653783   1.540000   2.148263
     7  H    2.732977   4.154944   4.810179   2.148263   2.468845
     8  C    3.875581   5.029618   5.935506   2.514809   2.732978
     9  C    5.029618   6.349582   7.165813   3.875581   4.154943
    10  C    6.349582   7.544428   8.440716   5.029618   5.142175
    11  H    6.526499   7.623327   8.556031   5.145533   5.033057
    12  C    7.544412   8.846607   9.679270   6.349565   6.525151
    13  H    7.624334   8.977222   9.760157   6.528157   6.642181
    14  C    8.846593  10.059198  10.950290   7.544393   7.621740
    15  C   10.059200  11.351470  12.193268   8.846587   8.974932
    16  H   10.950281  12.193255  13.068480   9.679240   9.758081
                    6          7          8          9         10
     6  C    0.000000
     7  H    1.070000   0.000000
     8  C    1.540000   2.148263   0.000000
     9  C    2.514809   2.732975   1.540000   0.000000
    10  C    3.875581   4.154944   2.514809   1.540000   0.000000
    11  H    4.157025   4.330022   2.736137   2.148265   1.070000
    12  C    5.029606   5.143839   3.875567   2.514807   1.540000
    13  H    5.145973   5.035218   4.158326   2.734983   2.148263
    14  C    6.349557   6.525991   5.029592   3.875575   2.514809
    15  C    7.544401   7.622789   6.349555   5.029613   3.875581
    16  H    8.440683   8.556038   7.165782   5.935498   4.653783
                   11         12         13         14         15
    11  H    0.000000
    12  C    2.148263   0.000000
    13  H    2.467305   1.070000   0.000000
    14  C    2.734985   1.540000   2.148263   0.000000
    15  C    4.156088   2.514809   2.732709   1.540000   0.000000
    16  H    4.812048   3.444314   3.710904   2.148263   1.070000
                   16
    16  H    0.000000
 Stoichiometry    C10H6
 Framework group  C1[X(C10H6)]
 Deg. of freedom    42
 Full point group                 C1      NOp   1
 Largest Abelian subgroup         C1      NOp   1
 Largest concise Abelian subgroup C1      NOp   1
                         Standard orientation:                         
 ---------------------------------------------------------------------
 Center     Atomic      Atomic             Coordinates (Angstroms)
 Number     Number       Type             X           Y           Z
 ---------------------------------------------------------------------
      1          6           0       -4.391405    0.530559   -0.055125
      2          6           0       -5.665957   -0.333792   -0.058979
      3          1           0       -6.527357    0.300944   -0.059521
      4          6           0       -3.151633   -0.382986   -0.054318
      5          1           0       -3.165365   -1.002097    0.818272
      6          6           0       -1.877082    0.481365   -0.050463
      7          1           0       -1.866648    1.097545    0.824245
      8          6           0       -0.637310   -0.432180   -0.049657
      9          6           0        0.637241    0.432172   -0.045796
     10          6           0        1.877014   -0.481373   -0.044994
     11          1           0        1.866806   -1.095711    0.831011
     12          6           0        3.151562    0.382972   -0.050995
     13          1           0        3.167640    1.000799    0.822464
     14          6           0        4.391315   -0.530582   -0.056470
     15          6           0        5.665867    0.333762   -0.061631
     16          1           0        6.527252   -0.300979   -0.065899
 ---------------------------------------------------------------------
 Rotational constants (GHZ):     16.5020688      0.3004479      0.2961146
 Leave Link  202 at Mon Mar 14 13:35:07 2022, MaxMem=  536870912 cpu:       0.4
 (Enter /opt/gridunesp/dist/gaussian/g09/l301.exe)
 Standard basis: 6-31G(d,p) (6D, 7F)
 Ernie: Thresh=  0.10000D-02 Tol=  0.10000D-05 Strict=F.
 AO basis set in the form of general basis input (Overlap normalization):
      1 0
 S   6 1.00       0.000000000000
      0.3047524880D+04  0.1834737132D-02
      0.4573695180D+03  0.1403732281D-01
      0.1039486850D+03  0.6884262226D-01
      0.2921015530D+02  0.2321844432D+00
      0.9286662960D+01  0.4679413484D+00
      0.3163926960D+01  0.3623119853D+00
 SP   3 1.00       0.000000000000
      0.7868272350D+01 -0.1193324198D+00  0.6899906659D-01
      0.1881288540D+01 -0.1608541517D+00  0.3164239610D+00
      0.5442492580D+00  0.1143456438D+01  0.7443082909D+00
 SP   1 1.00       0.000000000000
      0.1687144782D+00  0.1000000000D+01  0.1000000000D+01
 D   1 1.00       0.000000000000
      0.8000000000D+00  0.1000000000D+01
 ****
      2 0
 S   6 1.00       0.000000000000
      0.3047524880D+04  0.1834737132D-02
      0.4573695180D+03  0.1403732281D-01
      0.1039486850D+03  0.6884262226D-01
      0.2921015530D+02  0.2321844432D+00
      0.9286662960D+01  0.4679413484D+00
      0.3163926960D+01  0.3623119853D+00
 SP   3 1.00       0.000000000000
      0.7868272350D+01 -0.1193324198D+00  0.6899906659D-01
      0.1881288540D+01 -0.1608541517D+00  0.3164239610D+00
      0.5442492580D+00  0.1143456438D+01  0.7443082909D+00
 SP   1 1.00       0.000000000000
      0.1687144782D+00  0.1000000000D+01  0.1000000000D+01
 D   1 1.00       0.000000000000
      0.8000000000D+00  0.1000000000D+01
 ****
      3 0
 S   3 1.00       0.000000000000
      0.1873113696D+02  0.3349460434D-01
      0.2825394365D+01  0.2347269535D+00
      0.6401216923D+00  0.8137573261D+00
 S   1 1.00       0.000000000000
      0.1612777588D+00  0.1000000000D+01
 P   1 1.00       0.000000000000
      0.1100000000D+01  0.1000000000D+01
 ****
      4 0
 S   6 1.00       0.000000000000
      0.3047524880D+04  0.1834737132D-02
      0.4573695180D+03  0.1403732281D-01
      0.1039486850D+03  0.6884262226D-01
      0.2921015530D+02  0.2321844432D+00
      0.9286662960D+01  0.4679413484D+00
      0.3163926960D+01  0.3623119853D+00
 SP   3 1.00       0.000000000000
      0.7868272350D+01 -0.1193324198D+00  0.6899906659D-01
      0.1881288540D+01 -0.1608541517D+00  0.3164239610D+00
      0.5442492580D+00  0.1143456438D+01  0.7443082909D+00
 SP   1 1.00       0.000000000000
      0.1687144782D+00  0.1000000000D+01  0.1000000000D+01
 D   1 1.00       0.000000000000
      0.8000000000D+00  0.1000000000D+01
 ****
      5 0
 S   3 1.00       0.000000000000
      0.1873113696D+02  0.3349460434D-01
      0.2825394365D+01  0.2347269535D+00
      0.6401216923D+00  0.8137573261D+00
 S   1 1.00       0.000000000000
      0.1612777588D+00  0.1000000000D+01
 P   1 1.00       0.000000000000
      0.1100000000D+01  0.1000000000D+01
 ****
      6 0
 S   6 1.00       0.000000000000
      0.3047524880D+04  0.1834737132D-02
      0.4573695180D+03  0.1403732281D-01
      0.1039486850D+03  0.6884262226D-01
      0.2921015530D+02  0.2321844432D+00
      0.9286662960D+01  0.4679413484D+00
      0.3163926960D+01  0.3623119853D+00
 SP   3 1.00       0.000000000000
      0.7868272350D+01 -0.1193324198D+00  0.6899906659D-01
      0.1881288540D+01 -0.1608541517D+00  0.3164239610D+00
      0.5442492580D+00  0.1143456438D+01  0.7443082909D+00
 SP   1 1.00       0.000000000000
      0.1687144782D+00  0.1000000000D+01  0.1000000000D+01
 D   1 1.00       0.000000000000
      0.8000000000D+00  0.1000000000D+01
 ****
      7 0
 S   3 1.00       0.000000000000
      0.1873113696D+02  0.3349460434D-01
      0.2825394365D+01  0.2347269535D+00
      0.6401216923D+00  0.8137573261D+00
 S   1 1.00       0.000000000000
      0.1612777588D+00  0.1000000000D+01
 P   1 1.00       0.000000000000
      0.1100000000D+01  0.1000000000D+01
 ****
      8 0
 S   6 1.00       0.000000000000
      0.3047524880D+04  0.1834737132D-02
      0.4573695180D+03  0.1403732281D-01
      0.1039486850D+03  0.6884262226D-01
      0.2921015530D+02  0.2321844432D+00
      0.9286662960D+01  0.4679413484D+00
      0.3163926960D+01  0.3623119853D+00
 SP   3 1.00       0.000000000000
      0.7868272350D+01 -0.1193324198D+00  0.6899906659D-01
      0.1881288540D+01 -0.1608541517D+00  0.3164239610D+00
      0.5442492580D+00  0.1143456438D+01  0.7443082909D+00
 SP   1 1.00       0.000000000000
      0.1687144782D+00  0.1000000000D+01  0.1000000000D+01
 D   1 1.00       0.000000000000
      0.8000000000D+00  0.1000000000D+01
 ****
      9 0
 S   6 1.00       0.000000000000
      0.3047524880D+04  0.1834737132D-02
      0.4573695180D+03  0.1403732281D-01
      0.1039486850D+03  0.6884262226D-01
      0.2921015530D+02  0.2321844432D+00
      0.9286662960D+01  0.4679413484D+00
      0.3163926960D+01  0.3623119853D+00
 SP   3 1.00       0.000000000000
      0.7868272350D+01 -0.1193324198D+00  0.6899906659D-01
      0.1881288540D+01 -0.1608541517D+00  0.3164239610D+00
      0.5442492580D+00  0.1143456438D+01  0.7443082909D+00
 SP   1 1.00       0.000000000000
      0.1687144782D+00  0.1000000000D+01  0.1000000000D+01
 D   1 1.00       0.000000000000
      0.8000000000D+00  0.1000000000D+01
 ****
     10 0
 S   6 1.00       0.000000000000
      0.3047524880D+04  0.1834737132D-02
      0.4573695180D+03  0.1403732281D-01
      0.1039486850D+03  0.6884262226D-01
      0.2921015530D+02  0.2321844432D+00
      0.9286662960D+01  0.4679413484D+00
      0.3163926960D+01  0.3623119853D+00
 SP   3 1.00       0.000000000000
      0.7868272350D+01 -0.1193324198D+00  0.6899906659D-01
      0.1881288540D+01 -0.1608541517D+00  0.3164239610D+00
      0.5442492580D+00  0.1143456438D+01  0.7443082909D+00
 SP   1 1.00       0.000000000000
      0.1687144782D+00  0.1000000000D+01  0.1000000000D+01
 D   1 1.00       0.000000000000
      0.8000000000D+00  0.1000000000D+01
 ****
     11 0
 S   3 1.00       0.000000000000
      0.1873113696D+02  0.3349460434D-01
      0.2825394365D+01  0.2347269535D+00
      0.6401216923D+00  0.8137573261D+00
 S   1 1.00       0.000000000000
      0.1612777588D+00  0.1000000000D+01
 P   1 1.00       0.000000000000
      0.1100000000D+01  0.1000000000D+01
 ****
     12 0
 S   6 1.00       0.000000000000
      0.3047524880D+04  0.1834737132D-02
      0.4573695180D+03  0.1403732281D-01
      0.1039486850D+03  0.6884262226D-01
      0.2921015530D+02  0.2321844432D+00
      0.9286662960D+01  0.4679413484D+00
      0.3163926960D+01  0.3623119853D+00
 SP   3 1.00       0.000000000000
      0.7868272350D+01 -0.1193324198D+00  0.6899906659D-01
      0.1881288540D+01 -0.1608541517D+00  0.3164239610D+00
      0.5442492580D+00  0.1143456438D+01  0.7443082909D+00
 SP   1 1.00       0.000000000000
      0.1687144782D+00  0.1000000000D+01  0.1000000000D+01
 D   1 1.00       0.000000000000
      0.8000000000D+00  0.1000000000D+01
 ****
     13 0
 S   3 1.00       0.000000000000
      0.1873113696D+02  0.3349460434D-01
      0.2825394365D+01  0.2347269535D+00
      0.6401216923D+00  0.8137573261D+00
 S   1 1.00       0.000000000000
      0.1612777588D+00  0.1000000000D+01
 P   1 1.00       0.000000000000
      0.1100000000D+01  0.1000000000D+01
 ****
     14 0
 S   6 1.00       0.000000000000
      0.3047524880D+04  0.1834737132D-02
      0.4573695180D+03  0.1403732281D-01
      0.1039486850D+03  0.6884262226D-01
      0.2921015530D+02  0.2321844432D+00
      0.9286662960D+01  0.4679413484D+00
      0.3163926960D+01  0.3623119853D+00
 SP   3 1.00       0.000000000000
      0.7868272350D+01 -0.1193324198D+00  0.6899906659D-01
      0.1881288540D+01 -0.1608541517D+00  0.3164239610D+00
      0.5442492580D+00  0.1143456438D+01  0.7443082909D+00
 SP   1 1.00       0.000000000000
      0.1687144782D+00  0.1000000000D+01  0.1000000000D+01
 D   1 1.00       0.000000000000
      0.8000000000D+00  0.1000000000D+01
 ****
     15 0
 S   6 1.00       0.000000000000
      0.3047524880D+04  0.1834737132D-02
      0.4573695180D+03  0.1403732281D-01
      0.1039486850D+03  0.6884262226D-01
      0.2921015530D+02  0.2321844432D+00
      0.9286662960D+01  0.4679413484D+00
      0.3163926960D+01  0.3623119853D+00
 SP   3 1.00       0.000000000000
      0.7868272350D+01 -0.1193324198D+00  0.6899906659D-01
      0.1881288540D+01 -0.1608541517D+00  0.3164239610D+00
      0.5442492580D+00  0.1143456438D+01  0.7443082909D+00
 SP   1 1.00       0.000000000000
      0.1687144782D+00  0.1000000000D+01  0.1000000000D+01
 D   1 1.00       0.000000000000
      0.8000000000D+00  0.1000000000D+01
 ****
     16 0
 S   3 1.00       0.000000000000
      0.1873113696D+02  0.3349460434D-01
      0.2825394365D+01  0.2347269535D+00
      0.6401216923D+00  0.8137573261D+00
 S   1 1.00       0.000000000000
      0.1612777588D+00  0.1000000000D+01
 P   1 1.00       0.000000000000
      0.1100000000D+01  0.1000000000D+01
 ****

 There are   180 symmetry adapted basis functions of A   symmetry.
 Integral buffers will be    131072 words long.
 Raffenetti 2 integral format.
 Two-electron integral symmetry is turned on.
   180 basis functions,   322 primitive gaussians,   180 cartesian basis functions
    33 alpha electrons       33 beta electrons
       nuclear repulsion energy       328.6367033908 Hartrees.
 IExCor=  402 DFT=T Ex+Corr=B3LYP ExCW=0 ScaHFX=  0.200000
 ScaDFX=  0.800000  0.720000  1.000000  0.810000 ScalE2=  1.000000  1.000000
 IRadAn=      0 IRanWt=     -1 IRanGd=            0 ICorTp=0
 NAtoms=   16 NActive=   16 NUniq=   16 SFac= 7.50D-01 NAtFMM=   80 NAOKFM=F Big=F
 ------------------------------------------------------------------------------
 Polarizable Continuum Model (PCM)
 =================================
 Model                : PCM.
 Atomic radii         : UFF (Universal Force Field).
 Polarization charges : Total charges.
 Charge compensation  : None.
 Solution method      : Matrix inversion.
 Cavity type          : Scaled VdW (van der Waals Surface) (Alpha=1.100).
 Cavity algorithm     : GePol (No added spheres)
                        Default sphere list used, NSphG=   16.
                        Lebedev-Laikov grids with approx.  5.0 points / Ang**2.
                        Smoothing algorithm: Karplus/York (Gamma=1.0000).
                        Polarization charges: spherical gaussians, with
                                              point-specific exponents (IZeta= 3).
                        Self-potential: point-specific (ISelfS= 7).
                        Self-field    : sphere-specific E.n sum rule (ISelfD= 2).
 1st derivatives      : Analytical E(r).r(x)/FMM algorithm (CHGder, D1EAlg=3).
                        Cavity 1st derivative terms included.
 Solvent              : Water, Eps=  78.355300 Eps(inf)=   1.777849
 ------------------------------------------------------------------------------
 Spheres list:
 ISph  on   Nord    Re0     Alpha      Xe            Ye            Ze
    1   C      1    1.926   1.100     -4.391405      0.530559     -0.055125
    2   C      2    1.926   1.100     -5.665957     -0.333792     -0.058979
    3   H      3    1.443   1.100     -6.527357      0.300944     -0.059521
    4   C      4    1.926   1.100     -3.151633     -0.382986     -0.054318
    5   H      5    1.443   1.100     -3.165365     -1.002097      0.818272
    6   C      6    1.926   1.100     -1.877082      0.481365     -0.050463
    7   H      7    1.443   1.100     -1.866648      1.097545      0.824245
    8   C      8    1.926   1.100     -0.637310     -0.432180     -0.049657
    9   C      9    1.926   1.100      0.637241      0.432172     -0.045796
   10   C     10    1.926   1.100      1.877014     -0.481373     -0.044994
   11   H     11    1.443   1.100      1.866806     -1.095711      0.831011
   12   C     12    1.926   1.100      3.151562      0.382972     -0.050995
   13   H     13    1.443   1.100      3.167640      1.000799      0.822464
   14   C     14    1.926   1.100      4.391315     -0.530582     -0.056470
   15   C     15    1.926   1.100      5.665867      0.333762     -0.061631
   16   H     16    1.443   1.100      6.527252     -0.300979     -0.065899
 ------------------------------------------------------------------------------
 GePol: Number of generator spheres                  =      16
 GePol: Total number of spheres                      =      16
 GePol: Number of exposed spheres                    =      16 (100.00%)
 GePol: Number of points                             =    1604
 GePol: Average weight of points                     =       0.15
 GePol: Minimum weight of points                     =   0.47D-11
 GePol: Maximum weight of points                     =    0.20577
 GePol: Number of points with low weight             =      56
 GePol: Fraction of low-weight points (<1% of avg)   =       3.49%
 GePol: Cavity surface area                          =    248.560 Ang**2
 GePol: Cavity volume                                =    239.904 Ang**3
 Leave Link  301 at Mon Mar 14 13:35:07 2022, MaxMem=  536870912 cpu:       0.5
 (Enter /opt/gridunesp/dist/gaussian/g09/l302.exe)
 NPDir=0 NMtPBC=     1 NCelOv=     1 NCel=       1 NClECP=     1 NCelD=      1
         NCelK=      1 NCelE2=     1 NClLst=     1 CellRange=     0.0.
 One-electron integrals computed using PRISM.
 NBasis=   180 RedAO= T  NBF=   180
 NBsUse=   180 1.00D-06 NBFU=   180
 Precomputing XC quadrature grid using
 IXCGrd= 2 IRadAn=           0 IRanWt=          -1 IRanGd=           0 AccXCQ= 1.00D-10.
 NRdTot=    1018 NPtTot=      129760 NUsed=      137107 NTot=      137139
 NSgBfM=   173   173   173   173   173 NAtAll=    16    16.
 Leave Link  302 at Mon Mar 14 13:35:08 2022, MaxMem=  536870912 cpu:       2.5
 (Enter /opt/gridunesp/dist/gaussian/g09/l303.exe)
 DipDrv:  MaxL=1.
 Leave Link  303 at Mon Mar 14 13:35:08 2022, MaxMem=  536870912 cpu:       0.7
 (Enter /opt/gridunesp/dist/gaussian/g09/l401.exe)
 Harris functional with IExCor=  402 diagonalized for initial guess.
 ExpMin= 1.61D-01 ExpMax= 3.05D+03 ExpMxC= 4.57D+02 IAcc=1 IRadAn=         1 AccDes= 0.00D+00
 HarFok:  IExCor=  402 AccDes= 0.00D+00 IRadAn=         1 IDoV= 1
 ScaDFX=  1.000000  1.000000  1.000000  1.000000
 FoFCou: FMM=F IPFlag=           0 FMFlag=      100000 FMFlg1=           0
         NFxFlg=           0 DoJE=T BraDBF=F KetDBF=T FulRan=T
         Omega=  0.000000  0.000000  1.000000  0.000000  0.000000 ICntrl=     500 IOpCl=  0
         NMat0=    1 NMatS0=    1 NMatT0=    0 NMatD0=    1 NMtDS0=    0 NMtDT0=    0
         I1Cent=           4 NGrid=           0.
 Petite list used in FoFCou.
 Harris En= -383.803837021042    
 Initial guess orbital symmetries:
       Occupied  (A) (A) (A) (A) (A) (A) (A) (A) (A) (A) (A) (A)
                 (A) (A) (A) (A) (A) (A) (A) (A) (A) (A) (A) (A)
                 (A) (A) (A) (A) (A) (A) (A) (A) (A)
       Virtual   (A) (A) (A) (A) (A) (A) (A) (A) (A) (A) (A) (A)
                 (A) (A) (A) (A) (A) (A) (A) (A) (A) (A) (A) (A)
                 (A) (A) (A) (A) (A) (A) (A) (A) (A) (A) (A) (A)
                 (A) (A) (A) (A) (A) (A) (A) (A) (A) (A) (A) (A)
                 (A) (A) (A) (A) (A) (A) (A) (A) (A) (A) (A) (A)
                 (A) (A) (A) (A) (A) (A) (A) (A) (A) (A) (A) (A)
                 (A) (A) (A) (A) (A) (A) (A) (A) (A) (A) (A) (A)
                 (A) (A) (A) (A) (A) (A) (A) (A) (A) (A) (A) (A)
                 (A) (A) (A) (A) (A) (A) (A) (A) (A) (A) (A) (A)
                 (A) (A) (A) (A) (A) (A) (A) (A) (A) (A) (A) (A)
                 (A) (A) (A) (A) (A) (A) (A) (A) (A) (A) (A) (A)
                 (A) (A) (A) (A) (A) (A) (A) (A) (A) (A) (A) (A)
                 (A) (A) (A)
 The electronic state of the initial guess is 1-A.
 Leave Link  401 at Mon Mar 14 13:35:08 2022, MaxMem=  536870912 cpu:       3.3
 (Enter /opt/gridunesp/dist/gaussian/g09/l502.exe)
 Closed shell SCF:
 Requested convergence on RMS density matrix=1.00D-08 within 128 cycles.
 Requested convergence on MAX density matrix=1.00D-06.
 Requested convergence on             energy=1.00D-06.
 No special actions if energy rises.
 Using DIIS extrapolation, IDIIS=  1040.
 Integral symmetry usage will be decided dynamically.
       136950 words used for storage of precomputed grid.
 Keep R1 ints in memory in canonical form, NReq=138831088.
 IEnd=      255086 IEndB=      255086 NGot=   536870912 MDV=   403974824
 LenX=   403974824 LenY=   403941983
 Symmetry not used in FoFDir.
 MinBra= 0 MaxBra= 2 Meth= 1.
 IRaf=       0 NMat=   1 IRICut=       1 DoRegI=T DoRafI=F ISym2E= 0 JSym2E=0.

 Cycle   1  Pass 1  IDiag  1:
 E= -383.639134377433    
 DIIS: error= 2.00D-02 at cycle   1 NSaved=   1.
 NSaved= 1 IEnMin= 1 EnMin= -383.639134377433     IErMin= 1 ErrMin= 2.00D-02
 ErrMax= 2.00D-02 EMaxC= 1.00D-01 BMatC= 1.16D-01 BMatP= 1.16D-01
 IDIUse=3 WtCom= 8.00D-01 WtEn= 2.00D-01
 Coeff-Com:  0.100D+01
 Coeff-En:   0.100D+01
 Coeff:      0.100D+01
 Gap=     0.039 Goal=   None    Shift=    0.000
 GapD=    0.039 DampG=0.250 DampE=0.500 DampFc=0.2500 IDamp=-1.
 Damping current iteration by 2.50D-01
 RMSDP=5.90D-03 MaxDP=1.03D-01              OVMax= 6.99D-01

 Cycle   2  Pass 1  IDiag  1:
 E= -383.672585565881     Delta-E=       -0.033451188448 Rises=F Damp=T
 DIIS: error= 1.62D-02 at cycle   2 NSaved=   2.
 NSaved= 2 IEnMin= 2 EnMin= -383.672585565881     IErMin= 2 ErrMin= 1.62D-02
 ErrMax= 1.62D-02 EMaxC= 1.00D-01 BMatC= 3.39D-02 BMatP= 1.16D-01
 IDIUse=3 WtCom= 8.38D-01 WtEn= 1.62D-01
 Coeff-Com: -0.276D+00 0.128D+01
 Coeff-En:   0.140D+00 0.860D+00
 Coeff:     -0.208D+00 0.121D+01
 Gap=     0.026 Goal=   None    Shift=    0.000
 RMSDP=3.94D-03 MaxDP=6.78D-02 DE=-3.35D-02 OVMax= 7.83D-01

 Cycle   3  Pass 1  IDiag  1:
 E= -383.544215231073     Delta-E=        0.128370334807 Rises=F Damp=F
 DIIS: error= 2.90D-02 at cycle   3 NSaved=   3.
 NSaved= 3 IEnMin= 2 EnMin= -383.672585565881     IErMin= 2 ErrMin= 1.62D-02
 ErrMax= 2.90D-02 EMaxC= 1.00D-01 BMatC= 1.32D-01 BMatP= 3.39D-02
 IDIUse=2 WtCom= 0.00D+00 WtEn= 1.00D+00
 Coeff-En:   0.000D+00 0.737D+00 0.263D+00
 Coeff:      0.000D+00 0.737D+00 0.263D+00
 Gap=     0.023 Goal=   None    Shift=    0.000
 RMSDP=5.63D-03 MaxDP=9.27D-02 DE= 1.28D-01 OVMax= 7.02D-01

 Cycle   4  Pass 1  IDiag  1:
 E= -383.600662255237     Delta-E=       -0.056447024164 Rises=F Damp=F
 DIIS: error= 3.37D-02 at cycle   4 NSaved=   4.
 NSaved= 4 IEnMin= 2 EnMin= -383.672585565881     IErMin= 2 ErrMin= 1.62D-02
 ErrMax= 3.37D-02 EMaxC= 1.00D-01 BMatC= 1.05D-01 BMatP= 3.39D-02
 IDIUse=2 WtCom= 0.00D+00 WtEn= 1.00D+00
 Coeff-En:   0.000D+00 0.000D+00 0.456D+00 0.544D+00
 Coeff:      0.000D+00 0.000D+00 0.456D+00 0.544D+00
 Gap=     0.027 Goal=   None    Shift=    0.000
 RMSDP=3.30D-03 MaxDP=6.10D-02 DE=-5.64D-02 OVMax= 4.59D-01

 Cycle   5  Pass 1  IDiag  1:
 E= -383.759019876704     Delta-E=       -0.158357621467 Rises=F Damp=F
 DIIS: error= 5.45D-03 at cycle   5 NSaved=   5.
 NSaved= 5 IEnMin= 5 EnMin= -383.759019876704     IErMin= 5 ErrMin= 5.45D-03
 ErrMax= 5.45D-03 EMaxC= 1.00D-01 BMatC= 1.23D-02 BMatP= 3.39D-02
 IDIUse=3 WtCom= 9.46D-01 WtEn= 5.45D-02
 Coeff-Com: -0.459D+00 0.577D+00 0.652D-01 0.508D-03 0.817D+00
 Coeff-En:   0.000D+00 0.000D+00 0.000D+00 0.114D+00 0.886D+00
 Coeff:     -0.434D+00 0.545D+00 0.617D-01 0.668D-02 0.820D+00
 Gap=     0.036 Goal=   None    Shift=    0.000
 RMSDP=5.86D-04 MaxDP=1.37D-02 DE=-1.58D-01 OVMax= 3.66D-02

 Cycle   6  Pass 1  IDiag  1:
 E= -383.772772526238     Delta-E=       -0.013752649533 Rises=F Damp=F
 DIIS: error= 2.08D-03 at cycle   6 NSaved=   6.
 NSaved= 6 IEnMin= 6 EnMin= -383.772772526238     IErMin= 6 ErrMin= 2.08D-03
 ErrMax= 2.08D-03 EMaxC= 1.00D-01 BMatC= 5.62D-04 BMatP= 1.23D-02
 IDIUse=3 WtCom= 9.79D-01 WtEn= 2.08D-02
 Coeff-Com: -0.272D+00 0.343D+00 0.242D-01 0.209D-03 0.489D+00 0.416D+00
 Coeff-En:   0.000D+00 0.000D+00 0.000D+00 0.000D+00 0.000D+00 0.100D+01
 Coeff:     -0.266D+00 0.336D+00 0.237D-01 0.205D-03 0.479D+00 0.428D+00
 Gap=     0.037 Goal=   None    Shift=    0.000
 RMSDP=2.33D-04 MaxDP=4.22D-03 DE=-1.38D-02 OVMax= 2.32D-02

 Cycle   7  Pass 1  IDiag  1:
 E= -383.773209234694     Delta-E=       -0.000436708457 Rises=F Damp=F
 DIIS: error= 1.23D-03 at cycle   7 NSaved=   7.
 NSaved= 7 IEnMin= 7 EnMin= -383.773209234694     IErMin= 7 ErrMin= 1.23D-03
 ErrMax= 1.23D-03 EMaxC= 1.00D-01 BMatC= 3.37D-04 BMatP= 5.62D-04
 IDIUse=3 WtCom= 9.88D-01 WtEn= 1.23D-02
 Coeff-Com: -0.766D-01 0.101D+00-0.953D-02-0.190D-02 0.117D+00 0.407D+00
 Coeff-Com:  0.462D+00
 Coeff-En:   0.000D+00 0.000D+00 0.000D+00 0.000D+00 0.000D+00 0.338D+00
 Coeff-En:   0.662D+00
 Coeff:     -0.757D-01 0.100D+00-0.942D-02-0.188D-02 0.116D+00 0.407D+00
 Coeff:      0.464D+00
 Gap=     0.037 Goal=   None    Shift=    0.000
 RMSDP=1.25D-04 MaxDP=3.05D-03 DE=-4.37D-04 OVMax= 1.24D-02

 Cycle   8  Pass 1  IDiag  1:
 E= -383.773602966209     Delta-E=       -0.000393731515 Rises=F Damp=F
 DIIS: error= 3.50D-04 at cycle   8 NSaved=   8.
 NSaved= 8 IEnMin= 8 EnMin= -383.773602966209     IErMin= 8 ErrMin= 3.50D-04
 ErrMax= 3.50D-04 EMaxC= 1.00D-01 BMatC= 3.03D-05 BMatP= 3.37D-04
 IDIUse=3 WtCom= 9.96D-01 WtEn= 3.50D-03
 Coeff-Com: -0.283D-01 0.395D-01-0.847D-02-0.182D-03 0.331D-01 0.204D+00
 Coeff-Com:  0.317D+00 0.443D+00
 Coeff-En:   0.000D+00 0.000D+00 0.000D+00 0.000D+00 0.000D+00 0.000D+00
 Coeff-En:   0.196D-01 0.980D+00
 Coeff:     -0.282D-01 0.393D-01-0.844D-02-0.181D-03 0.330D-01 0.203D+00
 Coeff:      0.316D+00 0.445D+00
 Gap=     0.038 Goal=   None    Shift=    0.000
 RMSDP=6.15D-05 MaxDP=1.39D-03 DE=-3.94D-04 OVMax= 8.45D-03

 Cycle   9  Pass 1  IDiag  1:
 E= -383.773630507549     Delta-E=       -0.000027541340 Rises=F Damp=F
 DIIS: error= 2.70D-04 at cycle   9 NSaved=   9.
 NSaved= 9 IEnMin= 9 EnMin= -383.773630507549     IErMin= 9 ErrMin= 2.70D-04
 ErrMax= 2.70D-04 EMaxC= 1.00D-01 BMatC= 1.49D-05 BMatP= 3.03D-05
 IDIUse=3 WtCom= 9.97D-01 WtEn= 2.70D-03
 Coeff-Com:  0.119D-02-0.128D-03-0.421D-02 0.797D-03-0.135D-01 0.924D-02
 Coeff-Com:  0.116D+00 0.436D+00 0.454D+00
 Coeff-En:   0.000D+00 0.000D+00 0.000D+00 0.000D+00 0.000D+00 0.000D+00
 Coeff-En:   0.000D+00 0.273D+00 0.727D+00
 Coeff:      0.119D-02-0.127D-03-0.420D-02 0.795D-03-0.134D-01 0.921D-02
 Coeff:      0.116D+00 0.435D+00 0.455D+00
 Gap=     0.038 Goal=   None    Shift=    0.000
 RMSDP=5.24D-05 MaxDP=1.02D-03 DE=-2.75D-05 OVMax= 7.43D-03

 Cycle  10  Pass 1  IDiag  1:
 E= -383.773641737528     Delta-E=       -0.000011229979 Rises=F Damp=F
 DIIS: error= 2.10D-04 at cycle  10 NSaved=  10.
 NSaved=10 IEnMin=10 EnMin= -383.773641737528     IErMin=10 ErrMin= 2.10D-04
 ErrMax= 2.10D-04 EMaxC= 1.00D-01 BMatC= 9.24D-06 BMatP= 1.49D-05
 IDIUse=3 WtCom= 9.98D-01 WtEn= 2.10D-03
 Coeff-Com:  0.623D-02-0.781D-02-0.154D-02 0.478D-03-0.185D-01-0.528D-01
 Coeff-Com:  0.225D-01 0.293D+00 0.450D+00 0.309D+00
 Coeff-En:   0.000D+00 0.000D+00 0.000D+00 0.000D+00 0.000D+00 0.000D+00
 Coeff-En:   0.000D+00 0.000D+00 0.362D+00 0.638D+00
 Coeff:      0.622D-02-0.779D-02-0.154D-02 0.477D-03-0.184D-01-0.527D-01
 Coeff:      0.225D-01 0.292D+00 0.450D+00 0.309D+00
 Gap=     0.038 Goal=   None    Shift=    0.000
 RMSDP=2.44D-05 MaxDP=5.01D-04 DE=-1.12D-05 OVMax= 3.34D-03

 Cycle  11  Pass 1  IDiag  1:
 E= -383.773654527153     Delta-E=       -0.000012789625 Rises=F Damp=F
 DIIS: error= 2.63D-05 at cycle  11 NSaved=  11.
 NSaved=11 IEnMin=11 EnMin= -383.773654527153     IErMin=11 ErrMin= 2.63D-05
 ErrMax= 2.63D-05 EMaxC= 1.00D-01 BMatC= 1.44D-07 BMatP= 9.24D-06
 IDIUse=1 WtCom= 1.00D+00 WtEn= 0.00D+00
 Coeff-Com:  0.138D-02-0.173D-02 0.169D-03-0.328D-03-0.562D-02-0.257D-01
 Coeff-Com: -0.112D-01 0.404D-01 0.776D-01 0.893D-01 0.836D+00
 Coeff:      0.138D-02-0.173D-02 0.169D-03-0.328D-03-0.562D-02-0.257D-01
 Coeff:     -0.112D-01 0.404D-01 0.776D-01 0.893D-01 0.836D+00
 Gap=     0.038 Goal=   None    Shift=    0.000
 RMSDP=8.48D-06 MaxDP=1.25D-04 DE=-1.28D-05 OVMax= 1.19D-03

 Cycle  12  Pass 1  IDiag  1:
 E= -383.773654930806     Delta-E=       -0.000000403654 Rises=F Damp=F
 DIIS: error= 1.67D-05 at cycle  12 NSaved=  12.
 NSaved=12 IEnMin=12 EnMin= -383.773654930806     IErMin=12 ErrMin= 1.67D-05
 ErrMax= 1.67D-05 EMaxC= 1.00D-01 BMatC= 8.81D-08 BMatP= 1.44D-07
 IDIUse=1 WtCom= 1.00D+00 WtEn= 0.00D+00
 Coeff-Com:  0.569D-03-0.698D-03 0.229D-03-0.266D-03-0.301D-02-0.152D-01
 Coeff-Com: -0.947D-02 0.907D-02 0.142D-01 0.325D-01 0.588D+00 0.384D+00
 Coeff:      0.569D-03-0.698D-03 0.229D-03-0.266D-03-0.301D-02-0.152D-01
 Coeff:     -0.947D-02 0.907D-02 0.142D-01 0.325D-01 0.588D+00 0.384D+00
 Gap=     0.038 Goal=   None    Shift=    0.000
 RMSDP=3.35D-06 MaxDP=5.96D-05 DE=-4.04D-07 OVMax= 4.22D-04

 Cycle  13  Pass 1  IDiag  1:
 E= -383.773655052478     Delta-E=       -0.000000121672 Rises=F Damp=F
 DIIS: error= 9.64D-06 at cycle  13 NSaved=  13.
 NSaved=13 IEnMin=13 EnMin= -383.773655052478     IErMin=13 ErrMin= 9.64D-06
 ErrMax= 9.64D-06 EMaxC= 1.00D-01 BMatC= 3.26D-08 BMatP= 8.81D-08
 IDIUse=1 WtCom= 1.00D+00 WtEn= 0.00D+00
 Coeff-Com: -0.636D-04 0.115D-03 0.247D-04 0.153D-04-0.344D-03-0.791D-03
 Coeff-Com: -0.226D-03-0.249D-02-0.265D-01-0.277D-01 0.172D-01 0.366D+00
 Coeff-Com:  0.675D+00
 Coeff:     -0.636D-04 0.115D-03 0.247D-04 0.153D-04-0.344D-03-0.791D-03
 Coeff:     -0.226D-03-0.249D-02-0.265D-01-0.277D-01 0.172D-01 0.366D+00
 Coeff:      0.675D+00
 Gap=     0.038 Goal=   None    Shift=    0.000
 RMSDP=3.04D-06 MaxDP=5.29D-05 DE=-1.22D-07 OVMax= 4.12D-04

 Cycle  14  Pass 1  IDiag  1:
 E= -383.773655106732     Delta-E=       -0.000000054254 Rises=F Damp=F
 DIIS: error= 9.20D-06 at cycle  14 NSaved=  14.
 NSaved=14 IEnMin=14 EnMin= -383.773655106732     IErMin=14 ErrMin= 9.20D-06
 ErrMax= 9.20D-06 EMaxC= 1.00D-01 BMatC= 1.64D-08 BMatP= 3.26D-08
 IDIUse=1 WtCom= 1.00D+00 WtEn= 0.00D+00
 Coeff-Com: -0.139D-03 0.206D-03-0.434D-04 0.967D-04 0.190D-03 0.209D-02
 Coeff-Com:  0.211D-02-0.204D-02-0.261D-01-0.335D-01-0.110D+00 0.246D+00
 Coeff-Com:  0.589D+00 0.332D+00
 Coeff:     -0.139D-03 0.206D-03-0.434D-04 0.967D-04 0.190D-03 0.209D-02
 Coeff:      0.211D-02-0.204D-02-0.261D-01-0.335D-01-0.110D+00 0.246D+00
 Coeff:      0.589D+00 0.332D+00
 Gap=     0.038 Goal=   None    Shift=    0.000
 RMSDP=1.30D-06 MaxDP=2.32D-05 DE=-5.43D-08 OVMax= 1.68D-04

 Cycle  15  Pass 1  IDiag  1:
 E= -383.773655131276     Delta-E=       -0.000000024544 Rises=F Damp=F
 DIIS: error= 3.75D-06 at cycle  15 NSaved=  15.
 NSaved=15 IEnMin=15 EnMin= -383.773655131276     IErMin=15 ErrMin= 3.75D-06
 ErrMax= 3.75D-06 EMaxC= 1.00D-01 BMatC= 2.12D-09 BMatP= 1.64D-08
 IDIUse=1 WtCom= 1.00D+00 WtEn= 0.00D+00
 Coeff-Com: -0.371D-04 0.523D-04-0.609D-04 0.104D-03 0.188D-03 0.124D-02
 Coeff-Com:  0.165D-02 0.185D-02-0.590D-02-0.110D-01-0.720D-01-0.106D-01
 Coeff-Com:  0.322D-01 0.140D+00 0.922D+00
 Coeff:     -0.371D-04 0.523D-04-0.609D-04 0.104D-03 0.188D-03 0.124D-02
 Coeff:      0.165D-02 0.185D-02-0.590D-02-0.110D-01-0.720D-01-0.106D-01
 Coeff:      0.322D-01 0.140D+00 0.922D+00
 Gap=     0.038 Goal=   None    Shift=    0.000
 RMSDP=1.00D-06 MaxDP=1.38D-05 DE=-2.45D-08 OVMax= 1.44D-04

 Cycle  16  Pass 1  IDiag  1:
 E= -383.773655136572     Delta-E=       -0.000000005296 Rises=F Damp=F
 DIIS: error= 1.07D-06 at cycle  16 NSaved=  16.
 NSaved=16 IEnMin=16 EnMin= -383.773655136572     IErMin=16 ErrMin= 1.07D-06
 ErrMax= 1.07D-06 EMaxC= 1.00D-01 BMatC= 1.88D-10 BMatP= 2.12D-09
 IDIUse=1 WtCom= 1.00D+00 WtEn= 0.00D+00
 Coeff-Com:  0.734D-05-0.125D-04-0.189D-04 0.379D-04 0.341D-04 0.105D-03
 Coeff-Com:  0.145D-03 0.109D-02-0.134D-04-0.752D-03-0.499D-02-0.261D-01
 Coeff-Com: -0.539D-01 0.307D-02 0.266D+00 0.816D+00
 Coeff:      0.734D-05-0.125D-04-0.189D-04 0.379D-04 0.341D-04 0.105D-03
 Coeff:      0.145D-03 0.109D-02-0.134D-04-0.752D-03-0.499D-02-0.261D-01
 Coeff:     -0.539D-01 0.307D-02 0.266D+00 0.816D+00
 Gap=     0.038 Goal=   None    Shift=    0.000
 RMSDP=2.58D-07 MaxDP=5.48D-06 DE=-5.30D-09 OVMax= 3.55D-05

 Cycle  17  Pass 1  IDiag  1:
 E= -383.773655136912     Delta-E=       -0.000000000341 Rises=F Damp=F
 DIIS: error= 4.57D-07 at cycle  17 NSaved=  17.
 NSaved=17 IEnMin=17 EnMin= -383.773655136912     IErMin=17 ErrMin= 4.57D-07
 ErrMax= 4.57D-07 EMaxC= 1.00D-01 BMatC= 7.18D-11 BMatP= 1.88D-10
 IDIUse=1 WtCom= 1.00D+00 WtEn= 0.00D+00
 Coeff-Com:  0.834D-05-0.132D-04-0.681D-07 0.459D-05-0.131D-04-0.170D-03
 Coeff-Com: -0.275D-03 0.467D-03 0.106D-02 0.121D-02 0.130D-01-0.126D-01
 Coeff-Com: -0.409D-01-0.261D-01-0.182D-01 0.603D+00 0.480D+00
 Coeff:      0.834D-05-0.132D-04-0.681D-07 0.459D-05-0.131D-04-0.170D-03
 Coeff:     -0.275D-03 0.467D-03 0.106D-02 0.121D-02 0.130D-01-0.126D-01
 Coeff:     -0.409D-01-0.261D-01-0.182D-01 0.603D+00 0.480D+00
 Gap=     0.038 Goal=   None    Shift=    0.000
 RMSDP=1.02D-07 MaxDP=2.11D-06 DE=-3.41D-10 OVMax= 1.36D-05

 Cycle  18  Pass 1  IDiag  1:
 E= -383.773655137017     Delta-E=       -0.000000000104 Rises=F Damp=F
 DIIS: error= 3.32D-07 at cycle  18 NSaved=  18.
 NSaved=18 IEnMin=18 EnMin= -383.773655137017     IErMin=18 ErrMin= 3.32D-07
 ErrMax= 3.32D-07 EMaxC= 1.00D-01 BMatC= 1.39D-11 BMatP= 7.18D-11
 IDIUse=1 WtCom= 1.00D+00 WtEn= 0.00D+00
 Coeff-Com: -0.652D-05 0.928D-05 0.386D-05-0.774D-05 0.105D-05 0.400D-05
 Coeff-Com: -0.733D-04 0.186D-03 0.248D-03 0.153D-03 0.322D-02 0.608D-04
 Coeff-Com: -0.313D-02-0.484D-02-0.336D-01 0.608D-01 0.146D+00 0.831D+00
 Coeff:     -0.652D-05 0.928D-05 0.386D-05-0.774D-05 0.105D-05 0.400D-05
 Coeff:     -0.733D-04 0.186D-03 0.248D-03 0.153D-03 0.322D-02 0.608D-04
 Coeff:     -0.313D-02-0.484D-02-0.336D-01 0.608D-01 0.146D+00 0.831D+00
 Gap=     0.038 Goal=   None    Shift=    0.000
 RMSDP=2.81D-08 MaxDP=4.30D-07 DE=-1.04D-10 OVMax= 2.72D-06

 Cycle  19  Pass 1  IDiag  1:
 E= -383.773655137034     Delta-E=       -0.000000000017 Rises=F Damp=F
 DIIS: error= 2.29D-07 at cycle  19 NSaved=  19.
 NSaved=19 IEnMin=19 EnMin= -383.773655137034     IErMin=19 ErrMin= 2.29D-07
 ErrMax= 2.29D-07 EMaxC= 1.00D-01 BMatC= 5.32D-12 BMatP= 1.39D-11
 IDIUse=1 WtCom= 1.00D+00 WtEn= 0.00D+00
 Coeff-Com: -0.402D-06 0.784D-06 0.157D-05-0.346D-05 0.193D-05 0.510D-04
 Coeff-Com:  0.397D-04 0.567D-04-0.973D-04-0.270D-03-0.258D-02 0.400D-03
 Coeff-Com:  0.342D-02 0.421D-02 0.920D-02-0.491D-01-0.377D-01 0.231D-01
 Coeff-Com:  0.105D+01
 Coeff:     -0.402D-06 0.784D-06 0.157D-05-0.346D-05 0.193D-05 0.510D-04
 Coeff:      0.397D-04 0.567D-04-0.973D-04-0.270D-03-0.258D-02 0.400D-03
 Coeff:      0.342D-02 0.421D-02 0.920D-02-0.491D-01-0.377D-01 0.231D-01
 Coeff:      0.105D+01
 Gap=     0.038 Goal=   None    Shift=    0.000
 RMSDP=1.76D-08 MaxDP=3.45D-07 DE=-1.69D-11 OVMax= 1.79D-06

 Cycle  20  Pass 1  IDiag  1:
 E= -383.773655137043     Delta-E=       -0.000000000009 Rises=F Damp=F
 DIIS: error= 9.75D-08 at cycle  20 NSaved=  20.
 NSaved=20 IEnMin=20 EnMin= -383.773655137043     IErMin=20 ErrMin= 9.75D-08
 ErrMax= 9.75D-08 EMaxC= 1.00D-01 BMatC= 1.15D-12 BMatP= 5.32D-12
 IDIUse=1 WtCom= 1.00D+00 WtEn= 0.00D+00
 Coeff-Com:  0.182D-05-0.244D-05 0.289D-06-0.873D-06 0.144D-05 0.472D-04
 Coeff-Com:  0.592D-04 0.114D-04-0.157D-03-0.306D-03-0.336D-02 0.248D-03
 Coeff-Com:  0.376D-02 0.539D-02 0.194D-01-0.585D-01-0.765D-01-0.246D+00
 Coeff-Com:  0.856D+00 0.500D+00
 Coeff:      0.182D-05-0.244D-05 0.289D-06-0.873D-06 0.144D-05 0.472D-04
 Coeff:      0.592D-04 0.114D-04-0.157D-03-0.306D-03-0.336D-02 0.248D-03
 Coeff:      0.376D-02 0.539D-02 0.194D-01-0.585D-01-0.765D-01-0.246D+00
 Coeff:      0.856D+00 0.500D+00
 Gap=     0.038 Goal=   None    Shift=    0.000
 RMSDP=8.79D-09 MaxDP=1.52D-07 DE=-9.44D-12 OVMax= 8.50D-07

 Error on total polarization charges =  0.00836
 SCF Done:  E(RB3LYP) =  -383.773655137     A.U. after   20 cycles
             Convg  =    0.8785D-08             -V/T =  2.0134
 KE= 3.787146234435D+02 PE=-1.544950482694D+03 EE= 4.538255007224D+02
 Leave Link  502 at Mon Mar 14 13:35:38 2022, MaxMem=  536870912 cpu:     225.7
 (Enter /opt/gridunesp/dist/gaussian/g09/l601.exe)
 Copying SCF densities to generalized density rwf, IOpCl= 0 IROHF=0.

 **********************************************************************

            Population analysis using the SCF density.

 **********************************************************************

 Orbital symmetries:
       Occupied  (A) (A) (A) (A) (A) (A) (A) (A) (A) (A) (A) (A)
                 (A) (A) (A) (A) (A) (A) (A) (A) (A) (A) (A) (A)
                 (A) (A) (A) (A) (A) (A) (A) (A) (A)
       Virtual   (A) (A) (A) (A) (A) (A) (A) (A) (A) (A) (A) (A)
                 (A) (A) (A) (A) (A) (A) (A) (A) (A) (A) (A) (A)
                 (A) (A) (A) (A) (A) (A) (A) (A) (A) (A) (A) (A)
                 (A) (A) (A) (A) (A) (A) (A) (A) (A) (A) (A) (A)
                 (A) (A) (A) (A) (A) (A) (A) (A) (A) (A) (A) (A)
                 (A) (A) (A) (A) (A) (A) (A) (A) (A) (A) (A) (A)
                 (A) (A) (A) (A) (A) (A) (A) (A) (A) (A) (A) (A)
                 (A) (A) (A) (A) (A) (A) (A) (A) (A) (A) (A) (A)
                 (A) (A) (A) (A) (A) (A) (A) (A) (A) (A) (A) (A)
                 (A) (A) (A) (A) (A) (A) (A) (A) (A) (A) (A) (A)
                 (A) (A) (A) (A) (A) (A) (A) (A) (A) (A) (A) (A)
                 (A) (A) (A) (A) (A) (A) (A) (A) (A) (A) (A) (A)
                 (A) (A) (A)
 The electronic state is 1-A.
 Alpha  occ. eigenvalues --  -10.26180 -10.26166 -10.25674 -10.25650 -10.24811
 Alpha  occ. eigenvalues --  -10.24793 -10.24759 -10.24740 -10.23658 -10.23644
 Alpha  occ. eigenvalues --   -0.80817  -0.79546  -0.74558  -0.71506  -0.67179
 Alpha  occ. eigenvalues --   -0.62753  -0.56927  -0.51620  -0.51460  -0.48788
 Alpha  occ. eigenvalues --   -0.44880  -0.44435  -0.40666  -0.35534  -0.33998
 Alpha  occ. eigenvalues --   -0.33080  -0.31109  -0.30918  -0.29319  -0.27327
 Alpha  occ. eigenvalues --   -0.27047  -0.21638  -0.19618
 Alpha virt. eigenvalues --   -0.15834  -0.15065  -0.13428  -0.12072  -0.08414
 Alpha virt. eigenvalues --   -0.02072  -0.01660  -0.00131   0.13636   0.13838
 Alpha virt. eigenvalues --    0.15242   0.15302   0.17734   0.18959   0.20099
 Alpha virt. eigenvalues --    0.20871   0.21640   0.23293   0.24760   0.25720
 Alpha virt. eigenvalues --    0.27315   0.32532   0.32567   0.48402   0.50742
 Alpha virt. eigenvalues --    0.52502   0.52523   0.53962   0.54307   0.54551
 Alpha virt. eigenvalues --    0.54658   0.55017   0.55793   0.56092   0.56702
 Alpha virt. eigenvalues --    0.57547   0.58886   0.59622   0.59809   0.61253
 Alpha virt. eigenvalues --    0.62729   0.64268   0.65194   0.68456   0.68562
 Alpha virt. eigenvalues --    0.69684   0.69976   0.70641   0.71177   0.74726
 Alpha virt. eigenvalues --    0.76905   0.82850   0.84029   0.88502   0.88647
 Alpha virt. eigenvalues --    0.90090   0.90584   0.90963   0.91067   0.95100
 Alpha virt. eigenvalues --    0.97820   0.98351   0.99287   1.00464   1.08345
 Alpha virt. eigenvalues --    1.10871   1.16307   1.26152   1.26331   1.31478
 Alpha virt. eigenvalues --    1.33396   1.40844   1.41224   1.42410   1.43853
 Alpha virt. eigenvalues --    1.46700   1.50340   1.54871   1.55448   1.56564
 Alpha virt. eigenvalues --    1.62605   1.66321   1.70851   1.71233   1.71985
 Alpha virt. eigenvalues --    1.76402   1.82163   1.82246   1.83806   1.84513
 Alpha virt. eigenvalues --    1.87140   1.87386   1.89515   1.89938   1.91681
 Alpha virt. eigenvalues --    1.93451   1.95587   1.97480   1.99176   2.05260
 Alpha virt. eigenvalues --    2.07225   2.07584   2.09229   2.11227   2.14980
 Alpha virt. eigenvalues --    2.16619   2.19981   2.20352   2.23306   2.33584
 Alpha virt. eigenvalues --    2.42146   2.44514   2.45999   2.49113   2.49222
 Alpha virt. eigenvalues --    2.50104   2.51015   2.53803   2.53905   2.58367
 Alpha virt. eigenvalues --    2.59007   2.62283   2.64853   2.67002   2.68306
 Alpha virt. eigenvalues --    2.69339   2.74824   2.75535   2.79029   2.86691
 Alpha virt. eigenvalues --    2.91773   3.34348   3.34388   3.36805   3.38064
 Alpha virt. eigenvalues --    3.38992   3.39425   3.94529   3.97440   3.98193
 Alpha virt. eigenvalues --    4.11603   4.15529   4.17994   4.25218   4.30131
 Alpha virt. eigenvalues --    4.46506   4.51639
     Molecular Orbital Coefficients:
                           1         2         3         4         5
                           O         O         O         O         O
     Eigenvalues --   -10.26180 -10.26166 -10.25674 -10.25650 -10.24811
   1 1   C  1S         -0.00018   0.99298   0.00004   0.00001   0.00000
   2        2S         -0.00001   0.04753  -0.00006  -0.00002   0.00000
   3        2PX        -0.00001   0.00026   0.00000  -0.00003   0.00000
   4        2PY         0.00000  -0.00064  -0.00001  -0.00002   0.00000
   5        2PZ         0.00000   0.00002   0.00001   0.00000   0.00000
   6        3S         -0.00004  -0.01282   0.00054   0.00006   0.00002
   7        3PX         0.00002  -0.00041   0.00037   0.00052   0.00004
   8        3PY         0.00002   0.00316  -0.00014   0.00014   0.00000
   9        3PZ         0.00000   0.00000  -0.00003   0.00003   0.00000
  10        4XX         0.00000  -0.00901   0.00001   0.00002   0.00000
  11        4YY         0.00000  -0.00916  -0.00001  -0.00003   0.00000
  12        4ZZ         0.00000  -0.00901  -0.00003  -0.00001   0.00000
  13        4XY         0.00000  -0.00001  -0.00002  -0.00001   0.00000
  14        4XZ         0.00000   0.00001   0.00000   0.00001   0.00000
  15        4YZ         0.00000  -0.00001   0.00000  -0.00001   0.00000
  16 2   C  1S         -0.00001   0.00799  -0.00003  -0.00003  -0.00017
  17        2S         -0.00001   0.00022  -0.00002  -0.00003  -0.00001
  18        2PX         0.00000  -0.00010  -0.00002   0.00002   0.00000
  19        2PY         0.00000  -0.00016   0.00000  -0.00001   0.00000
  20        2PZ         0.00000   0.00001   0.00000   0.00000   0.00000
  21        3S          0.00004   0.00382   0.00010   0.00037   0.00003
  22        3PX         0.00003   0.00167   0.00009   0.00003   0.00001
  23        3PY         0.00000   0.00086   0.00003   0.00019   0.00001
  24        3PZ         0.00000  -0.00001   0.00000  -0.00001   0.00000
  25        4XX         0.00000  -0.00035  -0.00001   0.00000   0.00000
  26        4YY         0.00000  -0.00043  -0.00001   0.00001   0.00000
  27        4ZZ         0.00000  -0.00020  -0.00002  -0.00001   0.00000
  28        4XY         0.00000  -0.00018   0.00000   0.00001   0.00000
  29        4XZ         0.00000   0.00000   0.00000   0.00000   0.00000
  30        4YZ         0.00000   0.00000   0.00000   0.00000   0.00000
  31 3   H  1S          0.00000  -0.00012   0.00000  -0.00003   0.00000
  32        2S          0.00001   0.00000   0.00006  -0.00007   0.00000
  33        3PX         0.00000   0.00001   0.00001   0.00000   0.00000
  34        3PY         0.00000  -0.00004   0.00000   0.00000   0.00000
  35        3PZ         0.00000   0.00000   0.00000   0.00000   0.00000
  36 4   C  1S         -0.00002   0.00725  -0.00006   0.00007  -0.00008
  37        2S         -0.00003   0.00019  -0.00004   0.00009  -0.00001
  38        2PX         0.00000   0.00019  -0.00008  -0.00003   0.00000
  39        2PY         0.00000  -0.00021   0.00003  -0.00001   0.00000
  40        2PZ         0.00000   0.00000   0.00000   0.00002   0.00000
  41        3S          0.00023   0.00425  -0.00021  -0.00114   0.00001
  42        3PX         0.00010  -0.00188   0.00060  -0.00043   0.00004
  43        3PY         0.00007   0.00141  -0.00025  -0.00013  -0.00001
  44        3PZ         0.00000  -0.00013   0.00004  -0.00017   0.00000
  45        4XX         0.00000  -0.00037   0.00001   0.00001   0.00000
  46        4YY         0.00000  -0.00045  -0.00001   0.00005   0.00000
  47        4ZZ        -0.00001  -0.00022  -0.00002   0.00001   0.00000
  48        4XY         0.00001   0.00020   0.00002  -0.00002   0.00000
  49        4XZ         0.00000   0.00001   0.00001   0.00000   0.00000
  50        4YZ         0.00000   0.00001   0.00000   0.00002   0.00000
  51 5   H  1S         -0.00001  -0.00012  -0.00005   0.00003   0.00000
  52        2S          0.00000   0.00039   0.00005   0.00024   0.00000
  53        3PX         0.00000  -0.00002  -0.00003   0.00000   0.00000
  54        3PY         0.00000   0.00007   0.00002   0.00002   0.00000
  55        3PZ         0.00000  -0.00007  -0.00001  -0.00002   0.00000
  56 6   C  1S          0.00000   0.00000   0.00272   0.00443  -0.00002
  57        2S          0.00000   0.00004   0.00009   0.00001  -0.00002
  58        2PX        -0.00003   0.00008  -0.00014  -0.00013   0.00000
  59        2PY        -0.00001  -0.00002   0.00012   0.00018   0.00000
  60        2PZ         0.00000   0.00001   0.00001  -0.00001   0.00000
  61        3S         -0.00013  -0.00105   0.00153   0.00466   0.00017
  62        3PX         0.00019  -0.00023   0.00094   0.00175   0.00012
  63        3PY         0.00011   0.00031  -0.00063  -0.00144  -0.00004
  64        3PZ         0.00002  -0.00011  -0.00022   0.00000   0.00001
  65        4XX        -0.00001   0.00002  -0.00018  -0.00031   0.00000
  66        4YY        -0.00001   0.00002  -0.00021  -0.00040   0.00000
  67        4ZZ         0.00000  -0.00001  -0.00011  -0.00018  -0.00001
  68        4XY        -0.00001   0.00001   0.00011   0.00017  -0.00001
  69        4XZ         0.00000  -0.00001   0.00000  -0.00001   0.00000
  70        4YZ         0.00000  -0.00001  -0.00002   0.00000   0.00000
  71 7   H  1S         -0.00001  -0.00002  -0.00006  -0.00012  -0.00001
  72        2S         -0.00002   0.00023   0.00043   0.00018   0.00000
  73        3PX        -0.00001   0.00002   0.00001   0.00002   0.00000
  74        3PY         0.00000  -0.00003  -0.00005  -0.00004   0.00000
  75        3PZ         0.00000  -0.00002  -0.00005  -0.00005   0.00000
  76 8   C  1S         -0.00004  -0.00005   0.53196   0.83853   0.00001
  77        2S         -0.00003  -0.00007   0.02539   0.04050   0.00000
  78        2PX         0.00000   0.00003  -0.00026  -0.00007  -0.00002
  79        2PY         0.00000   0.00002   0.00029   0.00086   0.00001
  80        2PZ         0.00000   0.00001  -0.00001  -0.00003   0.00000
  81        3S          0.00029   0.00053  -0.00322  -0.01450  -0.00006
  82        3PX         0.00008  -0.00072   0.00181  -0.00106   0.00018
  83        3PY         0.00012   0.00007  -0.00079  -0.00390  -0.00006
  84        3PZ        -0.00001   0.00000   0.00002  -0.00001   0.00001
  85        4XX         0.00000   0.00002  -0.00509  -0.00749   0.00000
  86        4YY         0.00000  -0.00002  -0.00522  -0.00754  -0.00001
  87        4ZZ        -0.00002  -0.00003  -0.00497  -0.00752  -0.00001
  88        4XY         0.00001  -0.00003  -0.00016   0.00008   0.00001
  89        4XZ         0.00000   0.00000  -0.00001   0.00000   0.00000
  90        4YZ         0.00000   0.00000   0.00001   0.00001   0.00000
  91 9   C  1S         -0.00005  -0.00004   0.83838  -0.53219   0.00003
  92        2S         -0.00007  -0.00003   0.04022  -0.02583  -0.00004
  93        2PX        -0.00003   0.00000   0.00027   0.00004  -0.00001
  94        2PY        -0.00002   0.00000  -0.00063   0.00065   0.00000
  95        2PZ         0.00001   0.00000  -0.00002   0.00002   0.00000
  96        3S          0.00053   0.00029  -0.00909   0.01175   0.00034
  97        3PX         0.00072  -0.00008  -0.00119  -0.00173   0.00022
  98        3PY        -0.00007  -0.00012   0.00238  -0.00319  -0.00012
  99        3PZ         0.00001  -0.00001   0.00002   0.00000  -0.00003
 100        4XX         0.00002   0.00000  -0.00779   0.00461   0.00000
 101        4YY        -0.00002   0.00000  -0.00794   0.00460   0.00000
 102        4ZZ        -0.00003  -0.00002  -0.00770   0.00469  -0.00002
 103        4XY        -0.00003   0.00001  -0.00012  -0.00014  -0.00002
 104        4XZ         0.00000   0.00000   0.00001   0.00000   0.00000
 105        4YZ         0.00000   0.00000  -0.00001   0.00000   0.00000
 106 10  C  1S          0.00000   0.00000   0.00436  -0.00286  -0.00013
 107        2S          0.00004   0.00000   0.00008   0.00003  -0.00008
 108        2PX        -0.00008   0.00003   0.00018  -0.00006  -0.00004
 109        2PY         0.00002   0.00001  -0.00019   0.00011   0.00003
 110        2PZ         0.00001   0.00000   0.00001   0.00001   0.00000
 111        3S         -0.00104  -0.00013   0.00337  -0.00356   0.00047
 112        3PX         0.00023  -0.00019  -0.00160   0.00118   0.00071
 113        3PY        -0.00031  -0.00011   0.00119  -0.00104  -0.00006
 114        3PZ        -0.00011   0.00002  -0.00021  -0.00009   0.00009
 115        4XX         0.00002  -0.00001  -0.00029   0.00020   0.00000
 116        4YY         0.00002  -0.00001  -0.00036   0.00027  -0.00003
 117        4ZZ        -0.00001   0.00000  -0.00018   0.00012  -0.00003
 118        4XY         0.00001  -0.00001   0.00018  -0.00011   0.00003
 119        4XZ         0.00001   0.00000   0.00001  -0.00001   0.00001
 120        4YZ         0.00001   0.00000   0.00002   0.00001  -0.00001
 121 11  H  1S         -0.00002  -0.00001  -0.00011   0.00008  -0.00004
 122        2S          0.00023  -0.00002   0.00047   0.00001  -0.00008
 123        3PX        -0.00002   0.00001  -0.00002   0.00002  -0.00003
 124        3PY         0.00003   0.00000   0.00007  -0.00002   0.00000
 125        3PZ        -0.00002   0.00000  -0.00007   0.00002   0.00000
 126 12  C  1S          0.00727  -0.00002  -0.00003  -0.00009  -0.00600
 127        2S          0.00019  -0.00003   0.00000  -0.00010  -0.00034
 128        2PX        -0.00019   0.00000   0.00008   0.00001  -0.00007
 129        2PY         0.00021   0.00000  -0.00002  -0.00002  -0.00001
 130        2PZ         0.00000   0.00000   0.00001  -0.00001   0.00001
 131        3S          0.00425   0.00023  -0.00067   0.00094  -0.00030
 132        3PX         0.00188  -0.00010  -0.00036  -0.00064   0.00054
 133        3PY        -0.00141  -0.00007   0.00028  -0.00002   0.00006
 134        3PZ        -0.00014   0.00000  -0.00004   0.00017  -0.00014
 135        4XX        -0.00037   0.00000   0.00001   0.00000   0.00009
 136        4YY        -0.00045   0.00000   0.00001  -0.00005   0.00006
 137        4ZZ        -0.00022  -0.00001  -0.00002  -0.00002   0.00002
 138        4XY         0.00020   0.00001   0.00001   0.00002  -0.00004
 139        4XZ        -0.00001   0.00000  -0.00001  -0.00001   0.00001
 140        4YZ        -0.00002   0.00000  -0.00001   0.00002  -0.00001
 141 13  H  1S         -0.00012  -0.00001  -0.00003  -0.00005  -0.00003
 142        2S          0.00039   0.00000   0.00014  -0.00020   0.00022
 143        3PX         0.00002   0.00000   0.00002   0.00002  -0.00003
 144        3PY        -0.00007   0.00000  -0.00002   0.00001  -0.00002
 145        3PZ        -0.00007   0.00000  -0.00001   0.00001  -0.00002
 146 14  C  1S          0.99298   0.00018   0.00004   0.00001  -0.00820
 147        2S          0.04753   0.00001  -0.00007  -0.00001  -0.00052
 148        2PX        -0.00026   0.00001   0.00001  -0.00003  -0.00024
 149        2PY         0.00064   0.00000   0.00002  -0.00002  -0.00018
 150        2PZ         0.00003   0.00000   0.00001   0.00000   0.00000
 151        3S         -0.01282  -0.00005   0.00051   0.00017   0.00365
 152        3PX         0.00041  -0.00002  -0.00055   0.00031   0.00215
 153        3PY        -0.00317  -0.00002   0.00007   0.00019   0.00085
 154        3PZ        -0.00001   0.00000  -0.00001  -0.00004   0.00002
 155        4XX        -0.00901   0.00000   0.00002  -0.00001  -0.00024
 156        4YY        -0.00916   0.00000  -0.00002   0.00002  -0.00026
 157        4ZZ        -0.00901   0.00000  -0.00004   0.00000  -0.00005
 158        4XY        -0.00001   0.00000  -0.00003   0.00000  -0.00013
 159        4XZ        -0.00001   0.00000   0.00000   0.00001   0.00000
 160        4YZ         0.00001   0.00000   0.00000  -0.00001   0.00000
 161 15  C  1S          0.00801   0.00000  -0.00004   0.00001   0.99289
 162        2S          0.00022  -0.00001  -0.00003   0.00002   0.04765
 163        2PX         0.00010   0.00000   0.00001   0.00002   0.00054
 164        2PY         0.00016   0.00000   0.00000  -0.00001  -0.00102
 165        2PZ         0.00001   0.00000   0.00000   0.00000   0.00002
 166        3S          0.00382   0.00004   0.00025  -0.00029  -0.01127
 167        3PX        -0.00167  -0.00003  -0.00010  -0.00001   0.00061
 168        3PY        -0.00086   0.00000  -0.00011   0.00016   0.00254
 169        3PZ         0.00000   0.00000   0.00000   0.00001  -0.00002
 170        4XX        -0.00035   0.00000  -0.00001   0.00000  -0.00896
 171        4YY        -0.00043   0.00000   0.00000  -0.00001  -0.00925
 172        4ZZ        -0.00020   0.00000  -0.00002   0.00000  -0.00932
 173        4XY        -0.00018   0.00000   0.00001   0.00000  -0.00029
 174        4XZ         0.00000   0.00000   0.00000   0.00000  -0.00001
 175        4YZ         0.00000   0.00000   0.00000   0.00000  -0.00001
 176 16  H  1S         -0.00012   0.00000  -0.00002   0.00003  -0.00054
 177        2S          0.00000   0.00001   0.00002   0.00009   0.00265
 178        3PX        -0.00001   0.00000  -0.00001   0.00000   0.00022
 179        3PY         0.00004   0.00000   0.00000   0.00000  -0.00030
 180        3PZ         0.00000   0.00000   0.00000   0.00000   0.00000
                           6         7         8         9        10
                           O         O         O         O         O
     Eigenvalues --   -10.24793 -10.24759 -10.24740 -10.23658 -10.23644
   1 1   C  1S         -0.00818   0.00001  -0.00754   0.00000   0.00010
   2        2S         -0.00052  -0.00003  -0.00056   0.00001   0.00004
   3        2PX         0.00024   0.00001  -0.00005  -0.00003  -0.00008
   4        2PY         0.00018   0.00000   0.00015  -0.00001   0.00001
   5        2PZ         0.00000   0.00000   0.00000   0.00000   0.00004
   6        3S          0.00365   0.00025   0.00488  -0.00021  -0.00117
   7        3PX        -0.00215   0.00009   0.00189   0.00016  -0.00004
   8        3PY        -0.00085  -0.00009  -0.00140   0.00014   0.00041
   9        3PZ         0.00002   0.00000   0.00042   0.00000  -0.00023
  10        4XX        -0.00024   0.00000  -0.00020   0.00000   0.00002
  11        4YY        -0.00026   0.00000  -0.00027  -0.00001   0.00003
  12        4ZZ        -0.00005  -0.00001  -0.00009   0.00000   0.00000
  13        4XY        -0.00013  -0.00001   0.00017  -0.00001   0.00001
  14        4XZ         0.00000   0.00000   0.00008   0.00000  -0.00002
  15        4YZ        -0.00001   0.00000  -0.00006   0.00000   0.00003
  16 2   C  1S          0.99289   0.00017   0.00585   0.00001   0.00004
  17        2S          0.04765   0.00001   0.00022  -0.00002  -0.00008
  18        2PX        -0.00054  -0.00001  -0.00009   0.00001  -0.00001
  19        2PY         0.00102   0.00000  -0.00002   0.00000   0.00003
  20        2PZ         0.00002   0.00000   0.00003   0.00000   0.00000
  21        3S         -0.01127  -0.00002  -0.00043   0.00023   0.00060
  22        3PX        -0.00061   0.00001  -0.00002   0.00009   0.00056
  23        3PY        -0.00254  -0.00001  -0.00004   0.00007  -0.00002
  24        3PZ        -0.00003   0.00000  -0.00015   0.00000   0.00003
  25        4XX        -0.00896  -0.00001  -0.00005   0.00000   0.00002
  26        4YY        -0.00925   0.00000  -0.00004   0.00000  -0.00005
  27        4ZZ        -0.00932  -0.00001  -0.00011  -0.00001  -0.00005
  28        4XY        -0.00029   0.00000  -0.00002   0.00001   0.00002
  29        4XZ         0.00000   0.00000  -0.00001   0.00000   0.00001
  30        4YZ         0.00001   0.00000  -0.00002   0.00000   0.00001
  31 3   H  1S         -0.00054   0.00000  -0.00001  -0.00001   0.00001
  32        2S          0.00265   0.00002   0.00028   0.00000   0.00017
  33        3PX        -0.00022   0.00000   0.00003   0.00000  -0.00001
  34        3PY         0.00030   0.00000   0.00002   0.00000  -0.00002
  35        3PZ         0.00000   0.00000   0.00001   0.00000   0.00000
  36 4   C  1S         -0.00592  -0.00015   0.99298   0.00011  -0.01017
  37        2S         -0.00033   0.00000   0.04901  -0.00003  -0.00084
  38        2PX         0.00007  -0.00003   0.00001   0.00001  -0.00011
  39        2PY         0.00001   0.00001   0.00033   0.00000  -0.00014
  40        2PZ         0.00001   0.00000   0.00057   0.00000  -0.00003
  41        3S         -0.00031  -0.00019  -0.01747   0.00039   0.00597
  42        3PX        -0.00054   0.00019  -0.00034   0.00004   0.00214
  43        3PY        -0.00006  -0.00015  -0.00264   0.00021   0.00160
  44        3PZ        -0.00013  -0.00001  -0.00209  -0.00004   0.00062
  45        4XX         0.00009   0.00000  -0.00904   0.00000  -0.00021
  46        4YY         0.00006  -0.00001  -0.00893   0.00001  -0.00026
  47        4ZZ         0.00002   0.00000  -0.00881  -0.00002  -0.00008
  48        4XY        -0.00004   0.00001  -0.00002   0.00002  -0.00016
  49        4XZ        -0.00001   0.00000   0.00000   0.00000   0.00007
  50        4YZ         0.00001   0.00000  -0.00015   0.00000   0.00002
  51 5   H  1S         -0.00003   0.00000  -0.00006   0.00000  -0.00024
  52        2S          0.00022  -0.00001   0.00305   0.00004  -0.00005
  53        3PX         0.00003  -0.00001   0.00001   0.00000   0.00005
  54        3PY         0.00002   0.00000   0.00005  -0.00001   0.00005
  55        3PZ        -0.00002   0.00000   0.00024  -0.00001  -0.00006
  56 6   C  1S         -0.00013  -0.00005   0.00988  -0.00714   0.99299
  57        2S         -0.00008  -0.00004   0.00014  -0.00047   0.04914
  58        2PX         0.00004   0.00001   0.00013  -0.00006  -0.00006
  59        2PY        -0.00003   0.00000   0.00013  -0.00003  -0.00037
  60        2PZ         0.00000  -0.00001  -0.00002  -0.00001   0.00056
  61        3S          0.00047   0.00035   0.00559   0.00087  -0.01820
  62        3PX        -0.00071   0.00004  -0.00214   0.00094   0.00009
  63        3PY         0.00006  -0.00017  -0.00157   0.00005   0.00291
  64        3PZ         0.00009   0.00002   0.00056   0.00018  -0.00210
  65        4XX         0.00000  -0.00001  -0.00039   0.00006  -0.00904
  66        4YY        -0.00003   0.00000  -0.00043   0.00001  -0.00892
  67        4ZZ        -0.00003  -0.00002  -0.00026   0.00002  -0.00879
  68        4XY         0.00003  -0.00001  -0.00015  -0.00003   0.00001
  69        4XZ        -0.00001   0.00000  -0.00007   0.00001   0.00000
  70        4YZ         0.00001   0.00000  -0.00002   0.00001   0.00014
  71 7   H  1S         -0.00005  -0.00001  -0.00023  -0.00006  -0.00004
  72        2S         -0.00008   0.00001   0.00002  -0.00019   0.00307
  73        3PX         0.00003   0.00000  -0.00004  -0.00004   0.00000
  74        3PY         0.00000   0.00001  -0.00004   0.00000  -0.00006
  75        3PZ         0.00000  -0.00001  -0.00006   0.00000   0.00024
  76 8   C  1S          0.00003   0.00005  -0.00005   0.00015  -0.00546
  77        2S         -0.00004  -0.00008   0.00005   0.00006  -0.00054
  78        2PX         0.00001  -0.00005   0.00008  -0.00006   0.00011
  79        2PY         0.00000   0.00002   0.00000  -0.00001  -0.00017
  80        2PZ         0.00001   0.00001   0.00004   0.00004   0.00000
  81        3S          0.00034   0.00066  -0.00129  -0.00135   0.00569
  82        3PX        -0.00022   0.00087  -0.00012  -0.00003  -0.00216
  83        3PY         0.00012   0.00005  -0.00052  -0.00049   0.00181
  84        3PZ        -0.00003   0.00002  -0.00022  -0.00021   0.00044
  85        4XX         0.00000   0.00002   0.00001   0.00001  -0.00020
  86        4YY         0.00000  -0.00004   0.00002   0.00003  -0.00029
  87        4ZZ        -0.00002  -0.00005   0.00001   0.00001  -0.00012
  88        4XY        -0.00002   0.00003   0.00001  -0.00001   0.00016
  89        4XZ         0.00000   0.00001   0.00002  -0.00001  -0.00009
  90        4YZ         0.00000   0.00001  -0.00003  -0.00002   0.00006
  91 9   C  1S          0.00001  -0.00005   0.00005  -0.00548   0.00007
  92        2S          0.00000   0.00005  -0.00008  -0.00054   0.00006
  93        2PX         0.00002  -0.00008   0.00005  -0.00011   0.00006
  94        2PY        -0.00001   0.00000  -0.00002   0.00017   0.00001
  95        2PZ         0.00000   0.00004   0.00001   0.00000   0.00004
  96        3S         -0.00006  -0.00128   0.00066   0.00569  -0.00128
  97        3PX        -0.00018   0.00012  -0.00087   0.00216   0.00007
  98        3PY         0.00006   0.00051  -0.00005  -0.00181   0.00047
  99        3PZ         0.00001  -0.00022   0.00002   0.00044  -0.00020
 100        4XX         0.00000   0.00001   0.00002  -0.00020   0.00000
 101        4YY        -0.00001   0.00002  -0.00004  -0.00029   0.00002
 102        4ZZ        -0.00001   0.00001  -0.00005  -0.00012   0.00001
 103        4XY         0.00001   0.00001   0.00003   0.00016  -0.00001
 104        4XZ         0.00000  -0.00002  -0.00001   0.00009   0.00001
 105        4YZ         0.00000   0.00003  -0.00001  -0.00006   0.00002
 106 10  C  1S         -0.00002   0.00983  -0.00005   0.99299   0.00709
 107        2S         -0.00002   0.00014  -0.00004   0.04914   0.00024
 108        2PX         0.00000  -0.00013  -0.00001   0.00006   0.00006
 109        2PY         0.00000  -0.00013   0.00000   0.00037   0.00003
 110        2PZ         0.00000  -0.00002  -0.00001   0.00056   0.00000
 111        3S          0.00017   0.00558   0.00035  -0.01820   0.00061
 112        3PX        -0.00012   0.00215  -0.00004  -0.00008  -0.00094
 113        3PY         0.00004   0.00157   0.00016  -0.00291  -0.00009
 114        3PZ         0.00001   0.00055   0.00003  -0.00210   0.00014
 115        4XX         0.00000  -0.00039  -0.00001  -0.00904  -0.00007
 116        4YY         0.00000  -0.00043   0.00000  -0.00892  -0.00012
 117        4ZZ        -0.00001  -0.00026  -0.00002  -0.00879  -0.00011
 118        4XY        -0.00001  -0.00015  -0.00001   0.00001  -0.00003
 119        4XZ         0.00000   0.00007   0.00000   0.00000  -0.00001
 120        4YZ         0.00000   0.00002   0.00000  -0.00014  -0.00001
 121 11  H  1S         -0.00001  -0.00023  -0.00001  -0.00004  -0.00006
 122        2S          0.00000   0.00002   0.00001   0.00307  -0.00014
 123        3PX         0.00000   0.00004   0.00000   0.00000   0.00004
 124        3PY         0.00000   0.00004  -0.00001   0.00006   0.00000
 125        3PZ         0.00000  -0.00006  -0.00001   0.00024   0.00001
 126 12  C  1S         -0.00017   0.99297   0.00015  -0.01012  -0.00004
 127        2S         -0.00001   0.04901   0.00001  -0.00084  -0.00005
 128        2PX         0.00000  -0.00001   0.00003   0.00011  -0.00001
 129        2PY         0.00000  -0.00033  -0.00001   0.00014   0.00001
 130        2PZ         0.00000   0.00057   0.00000  -0.00003   0.00000
 131        3S          0.00001  -0.01747  -0.00019   0.00594   0.00047
 132        3PX        -0.00004   0.00033  -0.00019  -0.00214  -0.00007
 133        3PY         0.00001   0.00265   0.00015  -0.00159  -0.00023
 134        3PZ         0.00000  -0.00208  -0.00001   0.00062  -0.00003
 135        4XX         0.00000  -0.00904   0.00000  -0.00021   0.00000
 136        4YY         0.00000  -0.00893  -0.00001  -0.00026   0.00000
 137        4ZZ         0.00000  -0.00881   0.00000  -0.00008  -0.00002
 138        4XY         0.00000  -0.00002   0.00001  -0.00016   0.00001
 139        4XZ         0.00000   0.00000   0.00000  -0.00007   0.00000
 140        4YZ         0.00000   0.00015   0.00000  -0.00002   0.00000
 141 13  H  1S          0.00000  -0.00006   0.00000  -0.00024  -0.00001
 142        2S          0.00000   0.00305  -0.00001  -0.00005   0.00004
 143        3PX         0.00000  -0.00001   0.00001  -0.00005   0.00000
 144        3PY         0.00000  -0.00005   0.00000  -0.00005   0.00000
 145        3PZ         0.00000   0.00024   0.00000  -0.00006  -0.00001
 146 14  C  1S          0.00000  -0.00756   0.00001   0.00010   0.00000
 147        2S          0.00000  -0.00056  -0.00003   0.00004   0.00001
 148        2PX         0.00000   0.00005  -0.00001   0.00008   0.00003
 149        2PY         0.00000  -0.00015   0.00000  -0.00001   0.00001
 150        2PZ         0.00000   0.00000   0.00000   0.00004   0.00000
 151        3S          0.00002   0.00488   0.00025  -0.00116  -0.00023
 152        3PX        -0.00004  -0.00188  -0.00009   0.00003  -0.00016
 153        3PY         0.00000   0.00140   0.00009  -0.00041  -0.00014
 154        3PZ         0.00000   0.00043   0.00000  -0.00023   0.00000
 155        4XX         0.00000  -0.00020   0.00000   0.00002   0.00000
 156        4YY         0.00000  -0.00027   0.00000   0.00003  -0.00001
 157        4ZZ         0.00000  -0.00008  -0.00001   0.00000   0.00000
 158        4XY         0.00000   0.00017  -0.00001   0.00001  -0.00001
 159        4XZ         0.00000  -0.00008   0.00000   0.00002   0.00000
 160        4YZ         0.00000   0.00005   0.00000  -0.00003   0.00000
 161 15  C  1S          0.00017   0.00593   0.00008   0.00004   0.00001
 162        2S          0.00000   0.00022   0.00000  -0.00008  -0.00002
 163        2PX         0.00000   0.00009   0.00001   0.00001  -0.00001
 164        2PY         0.00000   0.00002   0.00000  -0.00003  -0.00001
 165        2PZ         0.00000   0.00003   0.00000   0.00000   0.00000
 166        3S          0.00002  -0.00044  -0.00002   0.00060   0.00024
 167        3PX        -0.00001   0.00002  -0.00001  -0.00056  -0.00010
 168        3PY        -0.00001   0.00004   0.00001   0.00002  -0.00007
 169        3PZ         0.00000  -0.00015   0.00000   0.00004   0.00000
 170        4XX         0.00000  -0.00005   0.00000   0.00002   0.00000
[...]
 123        3PX         0.00203
 124        3PY         0.00819
 125        3PZ         0.00259
 126 12  C  1S          1.99185
 127        2S          0.70877
 128        2PX         0.73399
 129        2PY         0.76194
 130        2PZ         0.57705
 131        3S          0.54824
 132        3PX         0.23704
 133        3PY         0.22397
 134        3PZ         0.41624
 135        4XX         0.00348
 136        4YY        -0.00095
 137        4ZZ        -0.02542
 138        4XY         0.01144
 139        4XZ         0.00646
 140        4YZ         0.00246
 141 13  H  1S          0.52816
 142        2S          0.31224
 143        3PX         0.00201
 144        3PY         0.00819
 145        3PZ         0.00264
 146 14  C  1S          1.99190
 147        2S          0.71387
 148        2PX         0.80868
 149        2PY         0.61486
 150        2PZ         0.60735
 151        3S          0.47887
 152        3PX        -0.24385
 153        3PY         0.31912
 154        3PZ         0.37848
 155        4XX         0.01537
 156        4YY        -0.02285
 157        4ZZ        -0.02553
 158        4XY         0.00970
 159        4XZ         0.01068
 160        4YZ         0.00035
 161 15  C  1S          1.99189
 162        2S          0.70665
 163        2PX         0.79812
 164        2PY         0.61160
 165        2PZ         0.58513
 166        3S          0.71432
 167        3PX         0.29989
 168        3PY         0.40765
 169        3PZ         0.40297
 170        4XX         0.01543
 171        4YY        -0.02385
 172        4ZZ        -0.02568
 173        4XY         0.00665
 174        4XZ         0.00614
 175        4YZ         0.00027
 176 16  H  1S          0.50977
 177        2S          0.27573
 178        3PX         0.00904
 179        3PY         0.00325
 180        3PZ         0.00301
          Condensed to atoms (all electrons):
              1          2          3          4          5          6
     1  C    4.677339   0.661881   0.020886   0.345637  -0.024384  -0.011917
     2  C    0.661881   5.737850   0.351615  -0.256478   0.003058   0.000061
     3  H    0.020886   0.351615   0.425928   0.002359   0.000003   0.000025
     4  C    0.345637  -0.256478   0.002359   5.250532   0.366727   0.522444
     5  H   -0.024384   0.003058   0.000003   0.366727   0.551529  -0.040871
     6  C   -0.011917   0.000061   0.000025   0.522444  -0.040871   5.161203
     7  H   -0.006430   0.000180  -0.000013  -0.043007   0.004982   0.364352
     8  C   -0.005171  -0.000965   0.000004   0.002574  -0.006783   0.446513
     9  C   -0.000833  -0.000021   0.000000   0.005692  -0.000980  -0.247936
    10  C    0.000001   0.000000   0.000000   0.000079  -0.000034  -0.001680
    11  H    0.000000   0.000000   0.000000   0.000001  -0.000003   0.000049
    12  C    0.000000   0.000000   0.000000   0.000001   0.000000   0.000079
    13  H    0.000000   0.000000   0.000000   0.000000   0.000000  -0.000034
    14  C    0.000000   0.000000   0.000000   0.000000   0.000000   0.000001
    15  C    0.000000   0.000000   0.000000   0.000000   0.000000   0.000000
    16  H    0.000000   0.000000   0.000000   0.000000   0.000000   0.000000
              7          8          9         10         11         12
     1  C   -0.006430  -0.005171  -0.000833   0.000001   0.000000   0.000000
     2  C    0.000180  -0.000965  -0.000021   0.000000   0.000000   0.000000
     3  H   -0.000013   0.000004   0.000000   0.000000   0.000000   0.000000
     4  C   -0.043007   0.002574   0.005692   0.000079   0.000001   0.000001
     5  H    0.004982  -0.006783  -0.000980  -0.000034  -0.000003   0.000000
     6  C    0.364352   0.446513  -0.247936  -0.001680   0.000049   0.000079
     7  H    0.551003  -0.022696   0.004021   0.000049  -0.000002   0.000001
     8  C   -0.022696   5.728191   0.048864  -0.247934   0.004021   0.005692
     9  C    0.004021   0.048864   5.728193   0.446510  -0.022697   0.002574
    10  C    0.000049  -0.247934   0.446510   5.161206   0.364353   0.522442
    11  H   -0.000002   0.004021  -0.022697   0.364353   0.551002  -0.043007
    12  C    0.000001   0.005692   0.002574   0.522442  -0.043007   5.250535
    13  H   -0.000003  -0.000981  -0.006783  -0.040871   0.004982   0.366728
    14  C    0.000000  -0.000833  -0.005171  -0.011916  -0.006430   0.345637
    15  C    0.000000  -0.000021  -0.000965   0.000062   0.000180  -0.256480
    16  H    0.000000   0.000000   0.000004   0.000025  -0.000013   0.002359
             13         14         15         16
     1  C    0.000000   0.000000   0.000000   0.000000
     2  C    0.000000   0.000000   0.000000   0.000000
     3  H    0.000000   0.000000   0.000000   0.000000
     4  C    0.000000   0.000000   0.000000   0.000000
     5  H    0.000000   0.000000   0.000000   0.000000
     6  C   -0.000034   0.000001   0.000000   0.000000
     7  H   -0.000003   0.000000   0.000000   0.000000
     8  C   -0.000981  -0.000833  -0.000021   0.000000
     9  C   -0.006783  -0.005171  -0.000965   0.000004
    10  C   -0.040871  -0.011916   0.000062   0.000025
    11  H    0.004982  -0.006430   0.000180  -0.000013
    12  C    0.366728   0.345637  -0.256480   0.002359
    13  H    0.551529  -0.024385   0.003057   0.000003
    14  C   -0.024385   4.677341   0.661875   0.020886
    15  C    0.003057   0.661875   5.737859   0.351615
    16  H    0.000003   0.020886   0.351615   0.425927
 Mulliken atomic charges:
              1
     1  C    0.342991
     2  C   -0.497180
     3  H    0.199193
     4  C   -0.196562
     5  H    0.146757
     6  C   -0.192289
     7  H    0.147563
     8  C    0.049525
     9  C    0.049528
    10  C   -0.192290
    11  H    0.147564
    12  C   -0.196561
    13  H    0.146757
    14  C    0.342994
    15  C   -0.497182
    16  H    0.199193
 Sum of Mulliken atomic charges =   0.00000
 Mulliken charges with hydrogens summed into heavy atoms:
              1
     1  C    0.342991
     2  C   -0.297988
     4  C   -0.049805
     6  C   -0.044725
     8  C    0.049525
     9  C    0.049528
    10  C   -0.044726
    12  C   -0.049804
    14  C    0.342994
    15  C   -0.297990
 Sum of Mulliken charges with hydrogens summed into heavy atoms =   0.00000
 Electronic spatial extent (au):  <R**2>=           3240.4661
 Charge=              0.0000 electrons
 Dipole moment (field-independent basis, Debye):
    X=              0.0000    Y=              0.0000    Z=              0.0001  Tot=              0.0001
 Quadrupole moment (field-independent basis, Debye-Ang):
   XX=            -38.0324   YY=            -52.7446   ZZ=            -60.3382
   XY=             -3.1467   XZ=              0.0001   YZ=             -0.0001
 Traceless Quadrupole moment (field-independent basis, Debye-Ang):
   XX=             12.3393   YY=             -2.3729   ZZ=             -9.9665
   XY=             -3.1467   XZ=              0.0001   YZ=             -0.0001
 Octapole moment (field-independent basis, Debye-Ang**2):
  XXX=             -0.0003  YYY=              0.0000  ZZZ=              0.0001  XYY=              0.0001
  XXY=             -0.0003  XXZ=              0.0045  XZZ=              0.0000  YZZ=              0.0000
  YYZ=              0.0000  XYZ=             -0.0003
 Hexadecapole moment (field-independent basis, Debye-Ang**3):
 XXXX=          -2769.9705 YYYY=           -110.8572 ZZZZ=            -61.9943 XXXY=           -197.4930
 XXXZ=              0.0148 YYYX=              1.4767 YYYZ=             -0.0001 ZZZX=              0.0000
 ZZZY=              0.0000 XXYY=           -759.8529 XXZZ=           -807.0585 YYZZ=            -32.1788
 XXYZ=             -0.0016 YYXZ=             -0.0005 ZZXY=             -0.4007
 N-N= 3.482626393869D+02 E-N=-1.586500345609D+03  KE= 3.806678020776D+02
 Orbital energies and kinetic energies (alpha):
                                 1                 2
   1         O               -10.227983         15.875252
   2         O               -10.227982         15.875229
   3         O               -10.227219         15.886806
   4         O               -10.227219         15.886838
   5         O               -10.206678         15.861503
   6         O               -10.204563         15.892659
   7         O               -10.203094         15.870424
   8         O               -10.203094         15.870386
   9         O               -10.197516         15.884616
  10         O               -10.197516         15.884614
  11         O                -0.836361          1.621153
  12         O                -0.825258          1.607482
  13         O                -0.776120          1.795567
  14         O                -0.752094          1.799829
  15         O                -0.722585          1.848973
  16         O                -0.664764          1.652724
  17         O                -0.628626          1.654607
  18         O                -0.540233          1.254941
  19         O                -0.538329          1.238856
  20         O                -0.525997          1.274476
  21         O                -0.506655          1.224555
  22         O                -0.486965          1.464081
  23         O                -0.473325          1.528491
  24         O                -0.418237          1.248554
  25         O                -0.408626          1.275063
  26         O                -0.374066          0.999711
  27         O                -0.351902          1.021464
  28         O                -0.315218          1.095751
  29         O                -0.287013          1.179421
  30         O                -0.284205          1.165292
  31         O                -0.276945          1.212252
  32         O                -0.269213          1.144147
  33         O                -0.215943          1.238181
  34         V                -0.084799          1.278598
  35         V                -0.018045          1.382640
  36         V                 0.030034          1.378614
  37         V                 0.037857          1.334648
  38         V                 0.040084          1.361036
  39         V                 0.098415          1.522163
  40         V                 0.118824          1.496912
  41         V                 0.127768          1.147626
  42         V                 0.129932          1.134790
  43         V                 0.133458          1.008575
  44         V                 0.139636          1.046044
  45         V                 0.166029          1.271176
  46         V                 0.169439          1.629376
  47         V                 0.184790          1.214241
  48         V                 0.235622          2.605756
  49         V                 0.282172          2.443430
  50         V                 0.310143          1.534419
  51         V                 0.314884          1.127572
  52         V                 0.324228          1.462117
  53         V                 0.351723          1.742392
  54         V                 0.426209          1.571265
  55         V                 0.436129          1.454658
  56         V                 0.456723          1.556720
  57         V                 0.485164          1.689921
  58         V                 0.492331          1.897568
  59         V                 0.507113          1.908145
  60         V                 0.508010          2.150976
  61         V                 0.531925          1.906877
  62         V                 0.543546          2.446691
  63         V                 0.549859          2.096225
  64         V                 0.556123          1.890328
  65         V                 0.566902          1.761020
  66         V                 0.571067          2.020705
  67         V                 0.589047          2.047303
  68         V                 0.616231          2.090784
  69         V                 0.626376          2.095161
  70         V                 0.641499          2.161948
  71         V                 0.662361          2.178347
  72         V                 0.679949          2.290529
  73         V                 0.681226          2.292688
  74         V                 0.712010          1.993504
  75         V                 0.731051          2.245896
  76         V                 0.752046          1.940410
  77         V                 0.758376          1.941870
  78         V                 0.801402          2.178098
  79         V                 0.808894          2.197287
  80         V                 0.817313          2.443067
  81         V                 0.822929          2.307933
  82         V                 0.828571          2.333007
  83         V                 0.845959          2.382266
  84         V                 0.853190          2.403259
  85         V                 0.879517          2.538561
  86         V                 0.907300          2.563243
  87         V                 0.911119          2.640964
  88         V                 0.972521          2.420163
  89         V                 1.003368          2.526841
  90         V                 1.025648          2.141451
  91         V                 1.045420          2.302403
  92         V                 1.100579          2.301238
  93         V                 1.118119          3.188526
  94         V                 1.167946          3.465505
  95         V                 1.185524          3.480451
  96         V                 1.219503          2.825820
  97         V                 1.248631          2.408033
  98         V                 1.256134          2.463142
  99         V                 1.290128          2.483009
 100         V                 1.295457          2.485773
 101         V                 1.371185          2.490998
 102         V                 1.397668          2.518889
 103         V                 1.415122          2.548898
 104         V                 1.473164          2.598146
 105         V                 1.512677          2.616078
 106         V                 1.530458          2.614230
 107         V                 1.533306          2.628744
 108         V                 1.545631          2.628790
 109         V                 1.546426          2.641523
 110         V                 1.560435          2.656244
 111         V                 1.563501          2.664669
 112         V                 1.581413          2.709450
 113         V                 1.581968          2.644898
 114         V                 1.633070          2.724232
 115         V                 1.641140          2.883789
 116         V                 1.683492          2.936512
 117         V                 1.744469          2.824206
 118         V                 1.769941          2.858057
 119         V                 1.776616          2.908041
 120         V                 1.866140          3.102473
 121         V                 1.875790          3.155532
 122         V                 1.884889          3.014590
 123         V                 1.896501          3.054254
 124         V                 1.898283          3.103944
 125         V                 1.920506          3.030903
 126         V                 1.928661          3.032127
 127         V                 1.952503          3.121616
 128         V                 1.962109          3.112430
 129         V                 1.971237          3.210179
 130         V                 1.995401          3.353458
 131         V                 2.057648          3.367698
 132         V                 2.071670          3.290807
 133         V                 2.087242          3.196726
 134         V                 2.118452          3.329317
 135         V                 2.171147          3.449174
 136         V                 2.180281          3.315416
 137         V                 2.202390          3.454826
 138         V                 2.276862          3.579909
 139         V                 2.288782          3.374460
 140         V                 2.326288          3.619318
 141         V                 2.331657          3.418678
 142         V                 2.398723          4.000068
 143         V                 2.402189          3.861664
 144         V                 2.489340          3.501474
 145         V                 2.519909          3.844561
 146         V                 2.523445          3.741068
 147         V                 2.533829          3.595325
 148         V                 2.544572          3.610132
 149         V                 2.557144          4.055550
 150         V                 2.560933          3.635360
 151         V                 2.651702          4.085579
 152         V                 2.667136          4.441929
 153         V                 2.788832          4.230934
 154         V                 2.846233          4.286769
 155         V                 2.901269          4.704811
 156         V                 2.930695          4.301579
 157         V                 2.980957          4.267118
 158         V                 2.989631          4.292420
 159         V                 3.005683          4.436940
 160         V                 3.068762          5.296533
 161         V                 3.086847          5.481971
 162         V                 3.107453          4.850204
 163         V                 3.148156          4.824664
 164         V                 3.378506          5.894509
 165         V                 3.407354          5.280808
 166         V                 3.473760          5.277938
 167         V                 3.566178          5.732283
 168         V                 3.632025          6.602434
 169         V                 3.733732          7.394384
 170         V                 3.736940          7.377712
 171         V                 4.086041         10.034746
 172         V                 4.125624         10.028619
 173         V                 4.169576         10.037905
 174         V                 4.258882         10.029190
 175         V                 4.470347          9.840127
 176         V                 4.555858          9.755981
 177         V                 4.673041          9.741343
 178         V                 4.900166          9.962850
 179         V                 5.089450          9.625938
 180         V                 5.098944          9.696076
 Total kinetic energy from orbitals= 3.806678020776D+02
 No NMR shielding tensors so no spin-rotation constants.
 Leave Link  601 at Mon Mar 14 13:50:09 2022, MaxMem=  536870912 cpu:       2.6
 (Enter /opt/gridunesp/dist/gaussian/g09/l9999.exe)

 Test job not archived.
 1\1\GINC-NODE008\FOpt\RB3LYP\6-31G(d,p)\C10H6\RHEINHEIMER\14-Mar-2022\
 0\\#P B3LYP/6-31G(d,p) # Opt=tight SCRF=(Solvent=Water) # Gfinput IOP(
 6/7=3) Pop=full Density Test # Units(Ang,Deg)\\Title Card Required\\0,
 1\C,-2.5824014344,0.2679415611,0.3222928506\C,-2.7248719198,1.39807361
 21,0.7401581929\H,-2.857604791,2.3948714766,1.0970677865\C,-2.38968330
 55,-1.060981033,-0.1278825007\H,-1.7788417418,-1.7106434067,0.49542173
 81\C,-2.9229373095,-1.5482390923,-1.2788247815\H,-3.5334652534,-0.8954
 572483,-1.8998103249\C,-2.733350651,-2.8699903153,-1.7300007869\C,-2.5
 978059226,-4.0042273125,-2.1617184942\C,-2.4082011914,-5.3259755373,-2
 .6129031365\H,-1.7976658408,-5.9787532256,-1.9919202483\C,-2.941445828
 6,-5.8132343547,-3.7638506521\H,-3.5522945936,-5.1635771137,-4.3871532
 251\C,-2.7487055052,-7.1421483574,-4.2140374005\C,-2.6062649638,-8.272
 283933,-4.6319035659\H,-2.4734654277,-9.2690572901,-4.9888563914\\Vers
 ion=EM64L-G09RevA.02\State=1-A\HF=-384.4555909\RMSD=4.356e-09\RMSF=1.7
 87e-06\Dipole=0.0000333,0.0000093,-0.0000219\Quadrupole=-5.5356888,7.6
 14955,-2.0792661,-2.4697541,1.638086,4.6155388\PG=C01 [X(C10H6)]\\@


 GARBAGE IN, GARBAGE OUT
 Job cpu time:  0 days  1 hours 55 minutes 40.4 seconds.
 File lengths (MBytes):  RWF=    177 Int=      0 D2E=      0 Chk=      6 Scr=      2
 Normal termination of Gaussian 09 at Mon Mar 14 13:50:09 2022.
