 Entering Gaussian System, Link 0=g09
 Input=pda-1_opt_g09.com
 Output=pda-1_opt_g09.log
 Initial command:
 /opt/gridunesp/dist/gaussian/g09/l1.exe /store/rheinheimer/2838056/Gau-9720.inp -scrdir=/store/rheinheimer/2838056/
 Entering Link 1 = /opt/gridunesp/dist/gaussian/g09/l1.exe PID=      9722.
  
 Copyright (c) 1988,1990,1992,1993,1995,1998,2003,2009, Gaussian, Inc.
                  All Rights Reserved.
  
 This is part of the Gaussian(R) 09 program.  It is based on
 the Gaussian(R) 03 system (copyright 2003, Gaussian, Inc.),
 the Gaussian(R) 98 system (copyright 1998, Gaussian, Inc.),
 the Gaussian(R) 94 system (copyright 1995, Gaussian, Inc.),
 the Gaussian 92(TM) system (copyright 1992, Gaussian, Inc.),
 the Gaussian 90(TM) system (copyright 1990, Gaussian, Inc.),
 the Gaussian 88(TM) system (copyright 1988, Gaussian, Inc.),
 the Gaussian 86(TM) system (copyright 1986, Carnegie Mellon
 University), and the Gaussian 82(TM) system (copyright 1983,
 Carnegie Mellon University). Gaussian is a federally registered
 trademark of Gaussian, Inc.
  
 This software contains proprietary and confidential information,
 including trade secrets, belonging to Gaussian, Inc.
  
 This software is provided under written license and may be
 used, copied, transmitted, or stored only in accord with that
 written license.
  
 The following legend is applicable only to US Government
 contracts under FAR:
  
                    RESTRICTED RIGHTS LEGEND
  
 Use, reproduction and disclosure by the US Government is
 subject to restrictions as set forth in subparagraphs (a)
 and (c) of the Commercial Computer Software - Restricted
 Rights clause in FAR 52.227-19.
  
 Gaussian, Inc.
 340 Quinnipiac St., Bldg. 40, Wallingford CT 06492
  
  
 ---------------------------------------------------------------
 Warning -- This program may not be used in any manner that
 competes with the business of Gaussian, Inc. or will provide
 assistance to any competitor of Gaussian, Inc.  The licensee
 of this program is prohibited from giving any competitor of
 Gaussian, Inc. access to this program.  By using this program,
 the user acknowledges that Gaussian, Inc. is engaged in the
 business of creating and licensing software in the field of
 computational chemistry and represents and warrants to the
 licensee that it is not a competitor of Gaussian, Inc. and that
 it will not use this program in any manner prohibited above.
 ---------------------------------------------------------------
  

 Cite this work as:
 Gaussian 09, Revision A.02,
 M. J. Frisch, G. W. Trucks, H. B. Schlegel, G. E. Scuseria, 
 M. A. Robb, J. R. Cheeseman, G. Scalmani, V. Barone, B. Mennucci, 
 G. A. Petersson, H. Nakatsuji, M. Caricato, X. Li, H. P. Hratchian, 
 A. F. Izmaylov, J. Bloino, G. Zheng, J. L. Sonnenberg, M. Hada, 
 M. Ehara, K. Toyota, R. Fukuda, J. Hasegawa, M. Ishida, T. Nakajima, 
 Y. Honda, O. Kitao, H. Nakai, T. Vreven, J. A. Montgomery, Jr., 
 J. E. Peralta, F. Ogliaro, M. Bearpark, J. J. Heyd, E. Brothers, 
 K. N. Kudin, V. N. Staroverov, R. Kobayashi, J. Normand, 
 K. Raghavachari, A. Rendell, J. C. Burant, S. S. Iyengar, J. Tomasi, 
 M. Cossi, N. Rega, J. M. Millam, M. Klene, J. E. Knox, J. B. Cross, 
 V. Bakken, C. Adamo, J. Jaramillo, R. Gomperts, R. E. Stratmann, 
 O. Yazyev, A. J. Austin, R. Cammi, C. Pomelli, J. W. Ochterski, 
 R. L. Martin, K. Morokuma, V. G. Zakrzewski, G. A. Voth, 
 P. Salvador, J. J. Dannenberg, S. Dapprich, A. D. Daniels, 
 O. Farkas, J. B. Foresman, J. V. Ortiz, J. Cioslowski, 
 and D. J. Fox, Gaussian, Inc., Wallingford CT, 2009.
 
 ******************************************
 Gaussian 09:  EM64L-G09RevA.02 11-Jun-2009
                14-Mar-2022 
 ******************************************
 %nproc=8
 Will use up to    8 processors via shared memory.
 %Mem=4GB
 ----------------------------------------------------------------------
 #P B3LYP/6-31G(d,p) # Opt=tight SCRF=(Solvent=Water) # Gfinput IOP(6/7
 =3) Pop=full Density Test # Units(Ang,Deg)
 ----------------------------------------------------------------------
 1/7=10,14=-1,18=20,19=15,26=3,38=1/1,3;
 2/9=110,12=2,17=6,18=5,40=1/2;
 3/5=1,6=6,7=101,11=2,16=1,24=10,25=1,30=1,70=2201,71=1,72=1,74=-5/1,2,3;
 4//1;
 5/5=2,38=5,53=1/2;
 6/7=3,22=-1,28=1/1;
 7//1,2,3,16;
 1/7=10,14=-1,18=20,19=15/3(2);
 2/9=110/2;
 99//99;
 2/9=110/2;
 3/5=1,6=6,7=101,11=2,16=1,25=1,30=1,70=2205,71=1,72=1,74=-5/1,2,3;
 4/5=5,16=3/1;
 5/5=2,38=5,53=1/2;
 7//1,2,3,16;
 1/7=10,14=-1,18=20,19=15/3(-5);
 2/9=110/2;
 6/7=3,19=2,22=-1,28=1/1;
 99/9=1/99;
 Leave Link    1 at Mon Mar 14 13:30:02 2022, MaxMem=  536870912 cpu:       1.0
 (Enter /opt/gridunesp/dist/gaussian/g09/l101.exe)
 -------------------
 Title Card Required
 -------------------
 Symbolic Z-matrix:
 Charge =  0 Multiplicity = 1
 C                    -3.0994    0.49327   0.04898 
 H                    -2.74274  -0.51554   0.04898 
 C                    -2.58606   1.21923   1.30638 
 H                    -2.9427    2.22804   1.30637 
 
 NAtoms=      4 NQM=      4 NQMF=      0 NMic=      0 NMicF=      0 NTot=      4.
                    Isotopes and Nuclear Properties:
 (Nuclear quadrupole moments (NQMom) in fm**2, nuclear magnetic moments (NMagM)
  in nuclear magnetons)

  Atom         1           2           3           4
 IAtWgt=          12           1          12           1
 AtmWgt=  12.0000000   1.0078250  12.0000000   1.0078250
 NucSpn=           0           1           0           1
 AtZEff=   0.0000000   0.0000000   0.0000000   0.0000000
 NQMom=    0.0000000   0.0000000   0.0000000   0.0000000
 NMagM=    0.0000000   2.7928460   0.0000000   2.7928460
 Leave Link  101 at Mon Mar 14 13:30:03 2022, MaxMem=  536870912 cpu:       0.6
 (Enter /opt/gridunesp/dist/gaussian/g09/l103.exe)

 GradGradGradGradGradGradGradGradGradGradGradGradGradGradGradGradGradGrad
 Berny optimization.
 Initialization pass.
                           ----------------------------
                           !    Initial Parameters    !
                           ! (Angstroms and Degrees)  !
 --------------------------                            --------------------------
 ! Name  Definition              Value          Derivative Info.                !
 --------------------------------------------------------------------------------
 ! R1    R(1,2)                  1.07           estimate D2E/DX2                !
 ! R2    R(1,3)                  1.54           estimate D2E/DX2                !
 ! R3    R(3,4)                  1.07           estimate D2E/DX2                !
 ! A1    A(2,1,3)              109.4712         estimate D2E/DX2                !
 ! A2    A(1,3,4)              109.4712         estimate D2E/DX2                !
 ! D1    D(2,1,3,4)            179.9989         estimate D2E/DX2                !
 --------------------------------------------------------------------------------
 Trust Radius=3.00D-01 FncErr=1.00D-07 GrdErr=1.00D-06
 Number of steps in this run=  20 maximum allowed number of steps= 100.
 GradGradGradGradGradGradGradGradGradGradGradGradGradGradGradGradGradGrad

 Leave Link  103 at Mon Mar 14 13:30:03 2022, MaxMem=  536870912 cpu:       0.1
 (Enter /opt/gridunesp/dist/gaussian/g09/l202.exe)
                          Input orientation:                          
 ---------------------------------------------------------------------
 Center     Atomic      Atomic             Coordinates (Angstroms)
 Number     Number       Type             X           Y           Z
 ---------------------------------------------------------------------
      1          6           0       -3.099399    0.493272    0.048976
      2          1           0       -2.742744   -0.515539    0.048976
      3          6           0       -2.586057    1.219228    1.306381
      4          1           0       -2.942695    2.228043    1.306372
 ---------------------------------------------------------------------
                    Distance matrix (angstroms):
                    1          2          3          4
     1  C    0.000000
     2  H    1.070000   0.000000
     3  C    1.540000   2.148263   0.000000
     4  H    2.148263   3.024610   1.070000   0.000000
 Stoichiometry    C2H2
 Framework group  C2[X(C2H2)]
 Deg. of freedom     4
 Full point group                 C2      NOp   2
 Largest Abelian subgroup         C2      NOp   2
 Largest concise Abelian subgroup C2      NOp   2
                         Standard orientation:                         
 ---------------------------------------------------------------------
 Center     Atomic      Atomic             Coordinates (Angstroms)
 Number     Number       Type             X           Y           Z
 ---------------------------------------------------------------------
      1          6           0        0.000000   -0.770000   -0.000001
      2          1           0       -1.008806   -1.126666    0.000008
      3          6           0        0.000000    0.770000   -0.000001
      4          1           0        1.008806    1.126666    0.000008
 ---------------------------------------------------------------------
 Rotational constants (GHZ):    296.6931753     29.4919761     26.8254640
 Leave Link  202 at Mon Mar 14 13:30:03 2022, MaxMem=  536870912 cpu:       0.6
 (Enter /opt/gridunesp/dist/gaussian/g09/l301.exe)
 Standard basis: 6-31G(d,p) (6D, 7F)
 Ernie: Thresh=  0.10000D-02 Tol=  0.10000D-05 Strict=F.
 AO basis set in the form of general basis input (Overlap normalization):
      1 0
 S   6 1.00       0.000000000000
      0.3047524880D+04  0.1834737132D-02
      0.4573695180D+03  0.1403732281D-01
      0.1039486850D+03  0.6884262226D-01
      0.2921015530D+02  0.2321844432D+00
      0.9286662960D+01  0.4679413484D+00
      0.3163926960D+01  0.3623119853D+00
 SP   3 1.00       0.000000000000
      0.7868272350D+01 -0.1193324198D+00  0.6899906659D-01
      0.1881288540D+01 -0.1608541517D+00  0.3164239610D+00
      0.5442492580D+00  0.1143456438D+01  0.7443082909D+00
 SP   1 1.00       0.000000000000
      0.1687144782D+00  0.1000000000D+01  0.1000000000D+01
 D   1 1.00       0.000000000000
      0.8000000000D+00  0.1000000000D+01
 ****
      2 0
 S   3 1.00       0.000000000000
      0.1873113696D+02  0.3349460434D-01
      0.2825394365D+01  0.2347269535D+00
      0.6401216923D+00  0.8137573261D+00
 S   1 1.00       0.000000000000
      0.1612777588D+00  0.1000000000D+01
 P   1 1.00       0.000000000000
      0.1100000000D+01  0.1000000000D+01
 ****
      3 0
 S   6 1.00       0.000000000000
      0.3047524880D+04  0.1834737132D-02
      0.4573695180D+03  0.1403732281D-01
      0.1039486850D+03  0.6884262226D-01
      0.2921015530D+02  0.2321844432D+00
      0.9286662960D+01  0.4679413484D+00
      0.3163926960D+01  0.3623119853D+00
 SP   3 1.00       0.000000000000
      0.7868272350D+01 -0.1193324198D+00  0.6899906659D-01
      0.1881288540D+01 -0.1608541517D+00  0.3164239610D+00
      0.5442492580D+00  0.1143456438D+01  0.7443082909D+00
 SP   1 1.00       0.000000000000
      0.1687144782D+00  0.1000000000D+01  0.1000000000D+01
 D   1 1.00       0.000000000000
      0.8000000000D+00  0.1000000000D+01
 ****
      4 0
 S   3 1.00       0.000000000000
      0.1873113696D+02  0.3349460434D-01
      0.2825394365D+01  0.2347269535D+00
      0.6401216923D+00  0.8137573261D+00
 S   1 1.00       0.000000000000
      0.1612777588D+00  0.1000000000D+01
 P   1 1.00       0.000000000000
      0.1100000000D+01  0.1000000000D+01
 ****

 There are    20 symmetry adapted basis functions of A   symmetry.
 There are    20 symmetry adapted basis functions of B   symmetry.
 Integral buffers will be    131072 words long.
 Raffenetti 2 integral format.
 Two-electron integral symmetry is turned on.
    40 basis functions,    70 primitive gaussians,    40 cartesian basis functions
     7 alpha electrons        7 beta electrons
       nuclear repulsion energy        21.4359669458 Hartrees.
 IExCor=  402 DFT=T Ex+Corr=B3LYP ExCW=0 ScaHFX=  0.200000
 ScaDFX=  0.800000  0.720000  1.000000  0.810000 ScalE2=  1.000000  1.000000
 IRadAn=      0 IRanWt=     -1 IRanGd=            0 ICorTp=0
 NAtoms=    4 NActive=    4 NUniq=    2 SFac= 3.00D+00 NAtFMM=   80 NAOKFM=F Big=F
 ------------------------------------------------------------------------------
 Polarizable Continuum Model (PCM)
 =================================
 Model                : PCM.
 Atomic radii         : UFF (Universal Force Field).
 Polarization charges : Total charges.
 Charge compensation  : None.
 Solution method      : Matrix inversion.
 Cavity type          : Scaled VdW (van der Waals Surface) (Alpha=1.100).
 Cavity algorithm     : GePol (No added spheres)
                        Default sphere list used, NSphG=    4.
                        Lebedev-Laikov grids with approx.  5.0 points / Ang**2.
                        Smoothing algorithm: Karplus/York (Gamma=1.0000).
                        Polarization charges: spherical gaussians, with
                                              point-specific exponents (IZeta= 3).
                        Self-potential: point-specific (ISelfS= 7).
                        Self-field    : sphere-specific E.n sum rule (ISelfD= 2).
 1st derivatives      : Analytical E(r).r(x)/FMM algorithm (CHGder, D1EAlg=3).
                        Cavity 1st derivative terms included.
 Solvent              : Water, Eps=  78.355300 Eps(inf)=   1.777849
 ------------------------------------------------------------------------------
 Spheres list:
 ISph  on   Nord    Re0     Alpha      Xe            Ye            Ze
    1   C      1    1.926   1.100      0.000000     -0.770000     -0.000001
    2   H      2    1.443   1.100     -1.008806     -1.126666      0.000008
    3   C      3    1.926   1.100      0.000000      0.770000     -0.000001
    4   H      4    1.443   1.100      1.008806      1.126666      0.000008
 ------------------------------------------------------------------------------
 GePol: Number of generator spheres                  =       4
 GePol: Total number of spheres                      =       4
 GePol: Number of exposed spheres                    =       4 (100.00%)
 GePol: Number of points                             =     524
 GePol: Average weight of points                     =       0.16
 GePol: Minimum weight of points                     =   0.27D-04
 GePol: Maximum weight of points                     =    0.20577
 GePol: Number of points with low weight             =      18
 GePol: Fraction of low-weight points (<1% of avg)   =       3.44%
 GePol: Cavity surface area                          =     83.124 Ang**2
 GePol: Cavity volume                                =     66.056 Ang**3
 Leave Link  301 at Mon Mar 14 13:30:03 2022, MaxMem=  536870912 cpu:       0.4
 (Enter /opt/gridunesp/dist/gaussian/g09/l302.exe)
 NPDir=0 NMtPBC=     1 NCelOv=     1 NCel=       1 NClECP=     1 NCelD=      1
         NCelK=      1 NCelE2=     1 NClLst=     1 CellRange=     0.0.
 One-electron integrals computed using PRISM.
 One-electron integral symmetry used in STVInt
 NBasis=    40 RedAO= T  NBF=    20    20
 NBsUse=    40 1.00D-06 NBFU=    20    20
 Precomputing XC quadrature grid using
 IXCGrd= 2 IRadAn=           0 IRanWt=          -1 IRanGd=           0 AccXCQ= 1.00D-10.
 NRdTot=     244 NPtTot=       30968 NUsed=       32741 NTot=       32773
 NSgBfM=    40    40    40    40    40 NAtAll=     4     4.
 Leave Link  302 at Mon Mar 14 13:30:03 2022, MaxMem=  536870912 cpu:       1.6
 (Enter /opt/gridunesp/dist/gaussian/g09/l303.exe)
 DipDrv:  MaxL=1.
 Leave Link  303 at Mon Mar 14 13:30:03 2022, MaxMem=  536870912 cpu:       0.2
 (Enter /opt/gridunesp/dist/gaussian/g09/l401.exe)
 Harris functional with IExCor=  402 diagonalized for initial guess.
 ExpMin= 1.61D-01 ExpMax= 3.05D+03 ExpMxC= 4.57D+02 IAcc=1 IRadAn=         1 AccDes= 0.00D+00
 HarFok:  IExCor=  402 AccDes= 0.00D+00 IRadAn=         1 IDoV= 1
 ScaDFX=  1.000000  1.000000  1.000000  1.000000
 FoFCou: FMM=F IPFlag=           0 FMFlag=      100000 FMFlg1=           0
         NFxFlg=           0 DoJE=T BraDBF=F KetDBF=T FulRan=T
         Omega=  0.000000  0.000000  1.000000  0.000000  0.000000 ICntrl=     500 IOpCl=  0
         NMat0=    1 NMatS0=    1 NMatT0=    0 NMatD0=    1 NMtDS0=    0 NMtDT0=    0
         I1Cent=           4 NGrid=           0.
 Petite list used in FoFCou.
 Harris En= -77.1924928261650    
 Initial guess orbital symmetries:
       Occupied  (A) (B) (A) (B) (A) (B) (A)
       Virtual   (A) (B) (B) (A) (B) (A) (B) (A) (B) (A) (B) (A)
                 (B) (A) (B) (A) (B) (B) (A) (A) (A) (A) (B) (B)
                 (B) (B) (A) (B) (A) (A) (B) (A) (B)
 The electronic state of the initial guess is 1-A.
 Leave Link  401 at Mon Mar 14 13:30:04 2022, MaxMem=  536870912 cpu:       1.1
 (Enter /opt/gridunesp/dist/gaussian/g09/l502.exe)
 Closed shell SCF:
 Requested convergence on RMS density matrix=1.00D-08 within 128 cycles.
 Requested convergence on MAX density matrix=1.00D-06.
 Requested convergence on             energy=1.00D-06.
 No special actions if energy rises.
 Using DIIS extrapolation, IDIIS=  1040.
 Integral symmetry usage will be decided dynamically.
        32692 words used for storage of precomputed grid.
 Keep R1 ints in memory in canonical form, NReq=3592845.
 IEnd=       56314 IEndB=       56314 NGot=   536870912 MDV=   536496241
 LenX=   536496241 LenY=   536494200
 Symmetry not used in FoFDir.
 MinBra= 0 MaxBra= 2 Meth= 1.
 IRaf=       0 NMat=   1 IRICut=       1 DoRegI=T DoRafI=F ISym2E= 0 JSym2E=0.

 Cycle   1  Pass 1  IDiag  1:
 E= -77.1584635971220    
 DIIS: error= 2.72D-02 at cycle   1 NSaved=   1.
 NSaved= 1 IEnMin= 1 EnMin= -77.1584635971220     IErMin= 1 ErrMin= 2.72D-02
 ErrMax= 2.72D-02 EMaxC= 1.00D-01 BMatC= 1.95D-02 BMatP= 1.95D-02
 IDIUse=3 WtCom= 7.28D-01 WtEn= 2.72D-01
 Coeff-Com:  0.100D+01
 Coeff-En:   0.100D+01
 Coeff:      0.100D+01
 Gap=     0.101 Goal=   None    Shift=    0.000
 GapD=    0.101 DampG=1.000 DampE=0.500 DampFc=0.5000 IDamp=-1.
 Damping current iteration by 5.00D-01
 RMSDP=5.90D-03 MaxDP=4.44D-02              OVMax= 7.64D-02

 Cycle   2  Pass 1  IDiag  1:
 E= -77.1713777517052     Delta-E=       -0.012914154583 Rises=F Damp=T
 DIIS: error= 8.17D-03 at cycle   2 NSaved=   2.
 NSaved= 2 IEnMin= 2 EnMin= -77.1713777517052     IErMin= 2 ErrMin= 8.17D-03
 ErrMax= 8.17D-03 EMaxC= 1.00D-01 BMatC= 1.41D-03 BMatP= 1.95D-02
 IDIUse=3 WtCom= 9.18D-01 WtEn= 8.17D-02
 Coeff-Com: -0.187D+00 0.119D+01
 Coeff-En:   0.000D+00 0.100D+01
 Coeff:     -0.172D+00 0.117D+01
 Gap=     0.112 Goal=   None    Shift=    0.000
 RMSDP=8.67D-04 MaxDP=7.20D-03 DE=-1.29D-02 OVMax= 3.77D-02

 Cycle   3  Pass 1  IDiag  1:
 E= -77.1824329992019     Delta-E=       -0.011055247497 Rises=F Damp=F
 DIIS: error= 1.14D-03 at cycle   3 NSaved=   3.
 NSaved= 3 IEnMin= 3 EnMin= -77.1824329992019     IErMin= 3 ErrMin= 1.14D-03
 ErrMax= 1.14D-03 EMaxC= 1.00D-01 BMatC= 5.60D-05 BMatP= 1.41D-03
 IDIUse=3 WtCom= 9.89D-01 WtEn= 1.14D-02
 Coeff-Com: -0.469D-01 0.191D+00 0.856D+00
 Coeff-En:   0.000D+00 0.000D+00 0.100D+01
 Coeff:     -0.464D-01 0.189D+00 0.857D+00
 Gap=     0.113 Goal=   None    Shift=    0.000
 RMSDP=2.19D-04 MaxDP=1.69D-03 DE=-1.11D-02 OVMax= 4.89D-03

 Cycle   4  Pass 1  IDiag  1:
 E= -77.1824962400415     Delta-E=       -0.000063240840 Rises=F Damp=F
 DIIS: error= 2.35D-04 at cycle   4 NSaved=   4.
 NSaved= 4 IEnMin= 4 EnMin= -77.1824962400415     IErMin= 4 ErrMin= 2.35D-04
 ErrMax= 2.35D-04 EMaxC= 1.00D-01 BMatC= 2.47D-06 BMatP= 5.60D-05
 IDIUse=3 WtCom= 9.98D-01 WtEn= 2.35D-03
 Coeff-Com:  0.779D-03-0.295D-02 0.163D+00 0.839D+00
 Coeff-En:   0.000D+00 0.000D+00 0.000D+00 0.100D+01
 Coeff:      0.778D-03-0.295D-02 0.162D+00 0.840D+00
 Gap=     0.112 Goal=   None    Shift=    0.000
 RMSDP=4.06D-05 MaxDP=3.82D-04 DE=-6.32D-05 OVMax= 6.49D-04

 Cycle   5  Pass 1  IDiag  1:
 E= -77.1824992292803     Delta-E=       -0.000002989239 Rises=F Damp=F
 DIIS: error= 1.93D-05 at cycle   5 NSaved=   5.
 NSaved= 5 IEnMin= 5 EnMin= -77.1824992292803     IErMin= 5 ErrMin= 1.93D-05
 ErrMax= 1.93D-05 EMaxC= 1.00D-01 BMatC= 1.31D-08 BMatP= 2.47D-06
 IDIUse=1 WtCom= 1.00D+00 WtEn= 0.00D+00
 Coeff-Com:  0.888D-03-0.253D-02 0.392D-02 0.618D-01 0.936D+00
 Coeff:      0.888D-03-0.253D-02 0.392D-02 0.618D-01 0.936D+00
 Gap=     0.112 Goal=   None    Shift=    0.000
 RMSDP=4.18D-06 MaxDP=3.65D-05 DE=-2.99D-06 OVMax= 1.25D-04

 Cycle   6  Pass 1  IDiag  1:
 E= -77.1824992513182     Delta-E=       -0.000000022038 Rises=F Damp=F
 DIIS: error= 4.45D-06 at cycle   6 NSaved=   6.
 NSaved= 6 IEnMin= 6 EnMin= -77.1824992513182     IErMin= 6 ErrMin= 4.45D-06
 ErrMax= 4.45D-06 EMaxC= 1.00D-01 BMatC= 6.90D-10 BMatP= 1.31D-08
 IDIUse=1 WtCom= 1.00D+00 WtEn= 0.00D+00
 Coeff-Com:  0.196D-03-0.483D-03-0.592D-02-0.275D-01 0.840D-01 0.950D+00
 Coeff:      0.196D-03-0.483D-03-0.592D-02-0.275D-01 0.840D-01 0.950D+00
 Gap=     0.112 Goal=   None    Shift=    0.000
 RMSDP=1.09D-06 MaxDP=9.20D-06 DE=-2.20D-08 OVMax= 3.86D-05

 Cycle   7  Pass 1  IDiag  1:
 E= -77.1824992527871     Delta-E=       -0.000000001469 Rises=F Damp=F
 DIIS: error= 5.60D-07 at cycle   7 NSaved=   7.
 NSaved= 7 IEnMin= 7 EnMin= -77.1824992527871     IErMin= 7 ErrMin= 5.60D-07
 ErrMax= 5.60D-07 EMaxC= 1.00D-01 BMatC= 1.49D-11 BMatP= 6.90D-10
 IDIUse=1 WtCom= 1.00D+00 WtEn= 0.00D+00
 Coeff-Com: -0.261D-04 0.843D-04 0.796D-03 0.106D-02-0.261D-01-0.925D-01
 Coeff-Com:  0.112D+01
 Coeff:     -0.261D-04 0.843D-04 0.796D-03 0.106D-02-0.261D-01-0.925D-01
 Coeff:      0.112D+01
 Gap=     0.112 Goal=   None    Shift=    0.000
 RMSDP=1.95D-07 MaxDP=2.07D-06 DE=-1.47D-09 OVMax= 7.43D-06

 Cycle   8  Pass 1  IDiag  1:
 E= -77.1824992528275     Delta-E=       -0.000000000040 Rises=F Damp=F
 DIIS: error= 5.04D-08 at cycle   8 NSaved=   8.
 NSaved= 8 IEnMin= 8 EnMin= -77.1824992528275     IErMin= 8 ErrMin= 5.04D-08
 ErrMax= 5.04D-08 EMaxC= 1.00D-01 BMatC= 9.61D-14 BMatP= 1.49D-11
 IDIUse=1 WtCom= 1.00D+00 WtEn= 0.00D+00
 Coeff-Com: -0.260D-05 0.529D-05 0.551D-04 0.165D-03-0.945D-03-0.934D-02
 Coeff-Com: -0.418D-01 0.105D+01
 Coeff:     -0.260D-05 0.529D-05 0.551D-04 0.165D-03-0.945D-03-0.934D-02
 Coeff:     -0.418D-01 0.105D+01
 Gap=     0.112 Goal=   None    Shift=    0.000
 RMSDP=1.72D-08 MaxDP=1.77D-07 DE=-4.03D-11 OVMax= 6.60D-07

 Cycle   9  Pass 1  IDiag  1:
 E= -77.1824992528277     Delta-E=        0.000000000000 Rises=F Damp=F
 DIIS: error= 1.58D-09 at cycle   9 NSaved=   9.
 NSaved= 9 IEnMin= 9 EnMin= -77.1824992528277     IErMin= 9 ErrMin= 1.58D-09
 ErrMax= 1.58D-09 EMaxC= 1.00D-01 BMatC= 1.15D-16 BMatP= 9.61D-14
 IDIUse=1 WtCom= 1.00D+00 WtEn= 0.00D+00
 Coeff-Com:  0.243D-06-0.691D-06-0.482D-05-0.623D-05 0.162D-03 0.785D-03
 Coeff-Com: -0.251D-02-0.199D-01 0.102D+01
 Coeff:      0.243D-06-0.691D-06-0.482D-05-0.623D-05 0.162D-03 0.785D-03
 Coeff:     -0.251D-02-0.199D-01 0.102D+01
 Gap=     0.112 Goal=   None    Shift=    0.000
 RMSDP=9.18D-10 MaxDP=1.15D-08 DE=-1.99D-13 OVMax= 1.15D-08

 Error on total polarization charges =  0.00483
 SCF Done:  E(RB3LYP) =  -77.1824992528     A.U. after    9 cycles
             Convg  =    0.9184D-09             -V/T =  2.0148
 KE= 7.605546475363D+01 PE=-2.211899097399D+02 EE= 4.651597878767D+01
 Leave Link  502 at Mon Mar 14 13:30:06 2022, MaxMem=  536870912 cpu:      14.9
 (Enter /opt/gridunesp/dist/gaussian/g09/l601.exe)
 Copying SCF densities to generalized density rwf, IOpCl= 0 IROHF=0.

 **********************************************************************

            Population analysis using the SCF density.

 **********************************************************************

 Orbital symmetries:
       Occupied  (A) (B) (A) (B) (A) (B) (A)
       Virtual   (A) (B) (A) (B) (B) (A) (A) (B) (A) (B) (B) (A)
                 (B) (A) (B) (A) (B) (B) (A) (A) (A) (A) (B) (B)
                 (B) (B) (A) (B) (A) (A) (B) (A) (B)
 The electronic state is 1-A.
 Alpha  occ. eigenvalues --  -10.25984 -10.25961  -0.71906  -0.57511  -0.38466
 Alpha  occ. eigenvalues --   -0.31874  -0.25685
 Alpha virt. eigenvalues --   -0.14446  -0.03688   0.15001   0.15896   0.23544
 Alpha virt. eigenvalues --    0.52496   0.54470   0.54573   0.57867   0.58515
 Alpha virt. eigenvalues --    0.60623   0.75671   0.86869   0.90106   0.98942
 Alpha virt. eigenvalues --    1.39737   1.45882   1.46348   1.59293   1.74238
 Alpha virt. eigenvalues --    1.81137   2.05435   2.08782   2.15210   2.35368
 Alpha virt. eigenvalues --    2.45229   2.51780   2.58026   2.71083   3.28603
 Alpha virt. eigenvalues --    3.41497   3.97151   4.23321
     Molecular Orbital Coefficients:
                           1         2         3         4         5
                           O         O         O         O         O
     Eigenvalues --   -10.25984 -10.25961  -0.71906  -0.57511  -0.38466
   1 1   C  1S          0.70204   0.70221  -0.15228  -0.11808  -0.01744
   2        2S          0.03337   0.03364   0.31188   0.25111   0.03952
   3        2PX        -0.00057  -0.00063  -0.05147  -0.16427   0.19675
   4        2PY        -0.00030  -0.00001   0.08900  -0.12112   0.35119
   5        2PZ         0.00000   0.00000   0.00000   0.00000   0.00000
   6        3S         -0.00514  -0.01005   0.25301   0.25091   0.05911
   7        3PX         0.00141   0.00095  -0.01016  -0.04352   0.06947
   8        3PY         0.00025  -0.00236   0.01468  -0.03308   0.13664
   9        3PZ         0.00000   0.00000   0.00000   0.00000   0.00000
  10        4XX        -0.00649  -0.00617  -0.00642   0.00593  -0.01946
  11        4YY        -0.00683  -0.00629   0.00410  -0.01572   0.01226
  12        4ZZ        -0.00667  -0.00646  -0.01568  -0.01127   0.00067
  13        4XY         0.00022   0.00013   0.00303   0.00410  -0.01557
  14        4XZ         0.00000   0.00000   0.00000   0.00000   0.00000
  15        4YZ         0.00000   0.00000   0.00000   0.00000   0.00000
  16 2   H  1S         -0.00042  -0.00029   0.12302   0.20876  -0.19858
  17        2S          0.00205   0.00172   0.03859   0.10783  -0.18305
  18        3PX        -0.00017  -0.00027   0.00958   0.01171  -0.00579
  19        3PY         0.00002   0.00000   0.00510   0.00324   0.00502
  20        3PZ         0.00000   0.00000   0.00000   0.00000   0.00000
  21 3   C  1S          0.70204  -0.70221  -0.15228   0.11808  -0.01744
  22        2S          0.03337  -0.03364   0.31188  -0.25111   0.03952
  23        2PX         0.00057  -0.00063   0.05147  -0.16427  -0.19675
  24        2PY         0.00030  -0.00001  -0.08900  -0.12112  -0.35119
  25        2PZ         0.00000   0.00000   0.00000   0.00000   0.00000
  26        3S         -0.00514   0.01005   0.25301  -0.25091   0.05911
  27        3PX        -0.00141   0.00095   0.01016  -0.04352  -0.06947
  28        3PY        -0.00025  -0.00236  -0.01468  -0.03308  -0.13664
  29        3PZ         0.00000   0.00000   0.00000   0.00000   0.00000
  30        4XX        -0.00649   0.00617  -0.00642  -0.00593  -0.01946
  31        4YY        -0.00683   0.00629   0.00410   0.01572   0.01226
  32        4ZZ        -0.00667   0.00646  -0.01568   0.01127   0.00067
  33        4XY         0.00022  -0.00013   0.00303  -0.00410  -0.01557
  34        4XZ         0.00000   0.00000   0.00000   0.00000   0.00000
  35        4YZ         0.00000   0.00000   0.00000   0.00000   0.00000
  36 4   H  1S         -0.00042   0.00029   0.12302  -0.20876  -0.19858
  37        2S          0.00205  -0.00172   0.03859  -0.10783  -0.18305
  38        3PX         0.00017  -0.00027  -0.00958   0.01171   0.00579
  39        3PY        -0.00002   0.00000  -0.00510   0.00324  -0.00502
  40        3PZ         0.00000   0.00000   0.00000   0.00000   0.00000
                           6         7         8         9        10
                           O         O         V         V         V
     Eigenvalues --    -0.31874  -0.25685  -0.14446  -0.03688   0.15001
   1 1   C  1S         -0.08934   0.00000  -0.05273   0.00000   0.06168
   2        2S          0.19114   0.00000   0.08162   0.00000  -0.13536
   3        2PX         0.31851   0.00000   0.30052   0.00000   0.22646
   4        2PY        -0.09567   0.00001  -0.27548   0.00000   0.08251
   5        2PZ         0.00000   0.40522   0.00000   0.45154   0.00000
   6        3S          0.30496   0.00000   0.36082   0.00000  -0.95384
   7        3PX         0.19172   0.00000   0.22024   0.00000   0.89567
   8        3PY        -0.10343   0.00000  -0.21599   0.00000   0.25850
   9        3PZ         0.00000   0.30094   0.00000   0.49782  -0.00001
  10        4XX        -0.01404   0.00000  -0.01833   0.00000   0.00575
  11        4YY        -0.00910   0.00000  -0.00416   0.00000  -0.00641
  12        4ZZ        -0.00134   0.00000   0.00020   0.00000   0.00321
  13        4XY         0.00919   0.00000  -0.01178   0.00000  -0.00920
  14        4XZ         0.00000  -0.00575   0.00000  -0.00745   0.00000
  15        4YZ         0.00000   0.01413   0.00000  -0.01904   0.00000
  16 2   H  1S         -0.08296   0.00000  -0.12421   0.00000   0.03153
  17        2S         -0.09305   0.00000  -0.16506   0.00000   1.50385
  18        3PX         0.00352   0.00000   0.00420   0.00000  -0.00658
  19        3PY        -0.00577   0.00000  -0.00672   0.00000   0.00733
  20        3PZ         0.00000   0.01141   0.00000   0.01604   0.00000
  21 3   C  1S          0.08934   0.00000  -0.05273   0.00000   0.06168
  22        2S         -0.19114   0.00000   0.08162   0.00000  -0.13536
  23        2PX         0.31851   0.00000  -0.30052   0.00000  -0.22646
  24        2PY        -0.09567  -0.00001   0.27548   0.00000  -0.08251
  25        2PZ         0.00000   0.40522   0.00000  -0.45154   0.00000
  26        3S         -0.30496   0.00000   0.36082   0.00000  -0.95384
  27        3PX         0.19172   0.00000  -0.22024   0.00000  -0.89567
  28        3PY        -0.10343   0.00000   0.21599   0.00000  -0.25850
  29        3PZ         0.00000   0.30094   0.00000  -0.49782  -0.00001
  30        4XX         0.01404   0.00000  -0.01833   0.00000   0.00575
  31        4YY         0.00910   0.00000  -0.00416   0.00000  -0.00641
  32        4ZZ         0.00134   0.00000   0.00020   0.00000   0.00321
  33        4XY        -0.00919   0.00000  -0.01178   0.00000  -0.00920
  34        4XZ         0.00000   0.00575   0.00000  -0.00745   0.00000
  35        4YZ         0.00000  -0.01413   0.00000  -0.01904   0.00000
  36 4   H  1S          0.08296   0.00000  -0.12421   0.00000   0.03153
  37        2S          0.09305   0.00000  -0.16506   0.00000   1.50385
  38        3PX         0.00352   0.00000  -0.00420   0.00000   0.00658
  39        3PY        -0.00577   0.00000   0.00672   0.00000  -0.00733
  40        3PZ         0.00000   0.01141   0.00000  -0.01604   0.00000
                          11        12        13        14        15
                           V         V         V         V         V
     Eigenvalues --     0.15896   0.23544   0.52496   0.54470   0.54573
   1 1   C  1S          0.08744  -0.08661  -0.01884   0.00000  -0.01444
   2        2S         -0.12018   0.13910   0.00399   0.00000   0.16002
   3        2PX         0.23664   0.12012  -0.09470   0.00000   0.49968
   4        2PY         0.01817   0.35245  -0.61353   0.00000  -0.55452
   5        2PZ         0.00000   0.00000   0.00000   0.75188   0.00000
   6        3S         -1.45625   1.31582  -0.37799   0.00000   0.39489
   7        3PX         0.58355   0.17995   0.46375   0.00000  -0.55902
   8        3PY        -0.20420   1.47799   0.88795   0.00000   0.71384
   9        3PZ        -0.00001   0.00000   0.00000  -0.66047   0.00000
  10        4XX         0.00559   0.01719   0.03730   0.00000  -0.00871
  11        4YY         0.01185  -0.03227  -0.09776   0.00000   0.07270
  12        4ZZ         0.00941   0.00212   0.01255   0.00000   0.00701
  13        4XY         0.01459   0.00521  -0.00837   0.00000   0.01044
  14        4XZ         0.00000   0.00000   0.00000  -0.00169   0.00000
  15        4YZ         0.00000   0.00000   0.00000   0.02940   0.00000
  16 2   H  1S          0.07207   0.08252   0.15997   0.00000  -0.11316
  17        2S          1.46059   0.41547   0.17663   0.00000  -0.11261
  18        3PX        -0.00693  -0.00616   0.01396   0.00000  -0.00867
  19        3PY        -0.00828   0.01124   0.03503   0.00000  -0.01339
  20        3PZ         0.00000   0.00000   0.00000   0.00554   0.00000
  21 3   C  1S         -0.08744   0.08661  -0.01884   0.00000   0.01444
  22        2S          0.12018  -0.13910   0.00399   0.00000  -0.16002
  23        2PX         0.23664   0.12012   0.09470   0.00000   0.49968
  24        2PY         0.01817   0.35245   0.61353   0.00000  -0.55452
  25        2PZ         0.00000   0.00000   0.00000   0.75188   0.00000
  26        3S          1.45625  -1.31582  -0.37799   0.00000  -0.39489
  27        3PX         0.58355   0.17995  -0.46375   0.00000  -0.55902
  28        3PY        -0.20420   1.47799  -0.88795   0.00000   0.71384
  29        3PZ         0.00001   0.00000   0.00000  -0.66047   0.00000
  30        4XX        -0.00559  -0.01719   0.03730   0.00000   0.00871
  31        4YY        -0.01185   0.03227  -0.09776   0.00000  -0.07270
  32        4ZZ        -0.00941  -0.00212   0.01255   0.00000  -0.00701
  33        4XY        -0.01459  -0.00521  -0.00837   0.00000  -0.01044
  34        4XZ         0.00000   0.00000   0.00000   0.00169   0.00000
  35        4YZ         0.00000   0.00000   0.00000  -0.02940   0.00000
  36 4   H  1S         -0.07207  -0.08252   0.15997   0.00000   0.11316
  37        2S         -1.46059  -0.41547   0.17663   0.00000   0.11261
  38        3PX        -0.00693  -0.00616  -0.01396   0.00000  -0.00867
  39        3PY        -0.00828   0.01124  -0.03503   0.00000  -0.01339
  40        3PZ         0.00000   0.00000   0.00000   0.00554   0.00000
                          16        17        18        19        20
                           V         V         V         V         V
     Eigenvalues --     0.57867   0.58515   0.60623   0.75671   0.86869
   1 1   C  1S          0.01684   0.04366   0.00000  -0.03173  -0.03275
   2        2S         -0.43068  -0.08529   0.00000  -0.87807   0.05784
   3        2PX        -0.65413  -0.28328   0.00000   0.19788  -0.45935
   4        2PY         0.14442  -0.50934   0.00001  -0.14817  -0.29483
   5        2PZ         0.00000  -0.00001  -0.75237   0.00000   0.00000
   6        3S          0.37414   0.17055   0.00000   1.54812   0.27765
   7        3PX         0.99280   0.65661  -0.00001  -1.26034   0.75903
   8        3PY        -0.12860   0.94578  -0.00001  -0.01282   1.12165
   9        3PZ         0.00000   0.00001   1.07598   0.00001  -0.00001
  10        4XX        -0.05042   0.03732   0.00000  -0.14088  -0.14010
  11        4YY        -0.05797   0.05451   0.00000  -0.13703   0.02100
  12        4ZZ        -0.02587  -0.05368   0.00000   0.06146   0.06113
  13        4XY        -0.01183   0.06531   0.00000  -0.00434  -0.14555
  14        4XZ         0.00000   0.00000   0.00067   0.00000   0.00000
  15        4YZ         0.00000   0.00000  -0.00216   0.00000   0.00000
  16 2   H  1S         -0.03384   0.43889  -0.00001  -0.42045  -0.66978
  17        2S          0.18278   0.33485  -0.00001  -0.76778   1.48337
  18        3PX         0.03119   0.01317   0.00000  -0.00294   0.08268
  19        3PY         0.04615  -0.03531   0.00000  -0.00300   0.03045
  20        3PZ         0.00000   0.00000  -0.00474   0.00000   0.00000
  21 3   C  1S          0.01684  -0.04366   0.00000  -0.03173   0.03275
  22        2S         -0.43068   0.08529   0.00000  -0.87807  -0.05784
  23        2PX         0.65413  -0.28328   0.00000  -0.19788  -0.45935
  24        2PY        -0.14442  -0.50934   0.00001   0.14817  -0.29483
  25        2PZ         0.00000   0.00001   0.75237   0.00000   0.00000
  26        3S          0.37414  -0.17055   0.00000   1.54812  -0.27765
  27        3PX        -0.99280   0.65661  -0.00001   1.26034   0.75903
  28        3PY         0.12860   0.94578  -0.00001   0.01282   1.12165
  29        3PZ         0.00000  -0.00001  -1.07598   0.00001   0.00001
  30        4XX        -0.05042  -0.03732   0.00000  -0.14088   0.14010
  31        4YY        -0.05797  -0.05451   0.00000  -0.13703  -0.02100
  32        4ZZ        -0.02587   0.05368   0.00000   0.06146  -0.06113
  33        4XY        -0.01183  -0.06531   0.00000  -0.00434   0.14555
  34        4XZ         0.00000   0.00000   0.00067   0.00000   0.00000
  35        4YZ         0.00000   0.00000  -0.00216   0.00000   0.00000
  36 4   H  1S         -0.03384  -0.43889   0.00001  -0.42045   0.66978
  37        2S          0.18278  -0.33485   0.00001  -0.76778  -1.48337
  38        3PX        -0.03119   0.01317   0.00000   0.00294   0.08268
  39        3PY        -0.04615  -0.03531   0.00000   0.00300   0.03045
  40        3PZ         0.00000   0.00000   0.00474   0.00000   0.00000
                          21        22        23        24        25
                           V         V         V         V         V
     Eigenvalues --     0.90106   0.98942   1.39737   1.45882   1.46348
   1 1   C  1S         -0.01700  -0.03178   0.00000  -0.02774   0.00001
   2        2S          0.66064  -1.43620   0.00000  -0.27737   0.00010
   3        2PX        -0.31419   0.13265   0.00000  -0.04362   0.00001
   4        2PY        -0.18229  -0.12943   0.00000   0.04690  -0.00002
   5        2PZ         0.00000   0.00000  -0.05072   0.00001   0.02733
   6        3S         -1.24012   4.24639   0.00000   1.15326  -0.00042
   7        3PX         0.47331  -0.49323   0.00000  -0.22032   0.00008
   8        3PY         0.24263   1.51267   0.00000   0.44767  -0.00016
   9        3PZ        -0.00001   0.00001   0.00682   0.00004   0.09889
  10        4XX        -0.14091  -0.07251   0.00001  -0.26966   0.00010
  11        4YY         0.10752  -0.04892   0.00000   0.00187   0.00000
  12        4ZZ         0.08129  -0.04426  -0.00001   0.21996  -0.00008
  13        4XY        -0.04149  -0.06781   0.00000   0.51930  -0.00018
  14        4XZ         0.00000   0.00000   0.15390   0.00020   0.56784
  15        4YZ         0.00000   0.00000   0.58101   0.00001   0.01788
  16 2   H  1S         -0.71181  -0.01141   0.00000  -0.20594   0.00007
  17        2S          1.30813  -0.83326   0.00000  -0.16292   0.00006
  18        3PX         0.08887  -0.06043   0.00000   0.08901  -0.00003
  19        3PY         0.01707   0.01965   0.00000  -0.18029   0.00006
  20        3PZ         0.00000   0.00000  -0.18824  -0.00010  -0.28010
  21 3   C  1S         -0.01700   0.03178   0.00000   0.02774  -0.00001
  22        2S          0.66064   1.43620   0.00000   0.27737  -0.00010
  23        2PX         0.31419   0.13265   0.00000  -0.04362   0.00001
  24        2PY         0.18229  -0.12943   0.00000   0.04690  -0.00002
  25        2PZ         0.00000   0.00000  -0.05072  -0.00001  -0.02733
  26        3S         -1.24012  -4.24639   0.00000  -1.15326   0.00042
  27        3PX        -0.47331  -0.49323   0.00000  -0.22032   0.00008
  28        3PY        -0.24263   1.51267   0.00000   0.44767  -0.00016
  29        3PZ        -0.00001  -0.00001   0.00682  -0.00004  -0.09889
  30        4XX        -0.14091   0.07251   0.00001   0.26966  -0.00010
  31        4YY         0.10752   0.04892   0.00000  -0.00187   0.00000
  32        4ZZ         0.08129   0.04426  -0.00001  -0.21996   0.00008
  33        4XY        -0.04149   0.06781   0.00000  -0.51930   0.00018
  34        4XZ         0.00000   0.00000  -0.15390   0.00020   0.56784
  35        4YZ         0.00000   0.00000  -0.58101   0.00001   0.01788
  36 4   H  1S         -0.71181   0.01141   0.00000   0.20594  -0.00007
  37        2S          1.30813   0.83326   0.00000   0.16292  -0.00006
  38        3PX        -0.08887  -0.06043   0.00000   0.08901  -0.00003
  39        3PY        -0.01707   0.01965   0.00000  -0.18029   0.00006
  40        3PZ         0.00000   0.00000  -0.18824   0.00010   0.28010
                          26        27        28        29        30
                           V         V         V         V         V
     Eigenvalues --     1.59293   1.74238   1.81137   2.05435   2.08782
   1 1   C  1S          0.00000   0.01281   0.00609  -0.02429  -0.02378
   2        2S          0.00000  -0.22156   0.41388   0.04986  -0.27934
   3        2PX         0.00000  -0.05820  -0.05163   0.08566   0.04995
   4        2PY         0.00000  -0.16754   0.22737   0.13060  -0.02070
   5        2PZ         0.05730   0.00000   0.00000   0.00000   0.00000
   6        3S          0.00001  -0.07062  -0.56489   0.15776   0.80581
   7        3PX        -0.00001   0.38393   0.46019  -0.29171  -0.17281
   8        3PY         0.00000   0.33165  -0.09743  -0.12394   0.22381
   9        3PZ         0.04892   0.00000   0.00000   0.00000   0.00001
  10        4XX         0.00001  -0.28559  -0.15258   0.48284   0.40467
  11        4YY         0.00000   0.31711  -0.44733  -0.33613  -0.02939
  12        4ZZ        -0.00001  -0.02352   0.64354  -0.27904  -0.47988
  13        4XY         0.00000   0.36956   0.14574   0.31017   0.30573
  14        4XZ         0.52553   0.00000   0.00001  -0.00001  -0.00001
  15        4YZ        -0.26986   0.00000   0.00000   0.00000   0.00002
  16 2   H  1S          0.00000   0.16277   0.17213  -0.44133  -0.46677
  17        2S          0.00000   0.10982   0.31928   0.06295   0.08413
  18        3PX         0.00000   0.10450   0.01632   0.28650   0.18207
  19        3PY         0.00000  -0.37794  -0.11587  -0.10083   0.27633
  20        3PZ        -0.28763   0.00000   0.00000   0.00000  -0.00001
  21 3   C  1S          0.00000   0.01281   0.00609  -0.02429   0.02378
  22        2S          0.00000  -0.22156   0.41388   0.04986   0.27934
  23        2PX         0.00000   0.05820   0.05163  -0.08566   0.04995
  24        2PY         0.00000   0.16754  -0.22737  -0.13060  -0.02070
  25        2PZ         0.05730   0.00000   0.00000   0.00000   0.00000
  26        3S          0.00001  -0.07062  -0.56489   0.15776  -0.80581
  27        3PX         0.00001  -0.38393  -0.46019   0.29171  -0.17281
  28        3PY         0.00000  -0.33165   0.09743   0.12394   0.22381
  29        3PZ         0.04892   0.00000   0.00000   0.00000  -0.00001
  30        4XX         0.00001  -0.28559  -0.15258   0.48284  -0.40467
  31        4YY         0.00000   0.31711  -0.44733  -0.33613   0.02939
  32        4ZZ        -0.00001  -0.02352   0.64354  -0.27904   0.47988
  33        4XY         0.00000   0.36956   0.14574   0.31017  -0.30573
  34        4XZ        -0.52553   0.00000  -0.00001   0.00001  -0.00001
  35        4YZ         0.26986   0.00000   0.00000   0.00000   0.00002
  36 4   H  1S          0.00000   0.16277   0.17213  -0.44133   0.46677
  37        2S          0.00000   0.10982   0.31928   0.06295  -0.08413
  38        3PX         0.00000  -0.10450  -0.01632  -0.28650   0.18207
  39        3PY         0.00000   0.37794   0.11587   0.10083   0.27633
  40        3PZ        -0.28763   0.00000   0.00000   0.00000   0.00001
                          31        32        33        34        35
                           V         V         V         V         V
     Eigenvalues --     2.15210   2.35368   2.45229   2.51780   2.58026
   1 1   C  1S          0.00000  -0.05862   0.00000   0.00000  -0.07172
   2        2S          0.00001  -0.29346   0.00000   0.00000   0.07209
   3        2PX         0.00000   0.05091   0.00000   0.00000  -0.11075
   4        2PY         0.00000   0.22542   0.00000   0.00000   0.23023
   5        2PZ         0.01740   0.00000  -0.03825  -0.05738   0.00000
   6        3S         -0.00005   1.89201   0.00002   0.00000   1.27192
   7        3PX         0.00001  -0.18336   0.00000   0.00000   0.00616
   8        3PY        -0.00002   1.04136   0.00001   0.00000   0.67258
   9        3PZ         0.27336   0.00001  -0.14809  -0.09730   0.00000
  10        4XX        -0.00002   0.06040   0.00001   0.00001  -0.47612
  11        4YY         0.00000   0.34406   0.00001   0.00000   0.81651
  12        4ZZ         0.00002  -0.47729  -0.00002  -0.00001  -0.46829
  13        4XY        -0.00001  -0.19130   0.00000   0.00000   0.15295
  14        4XZ        -0.13173  -0.00001   0.43535   0.51857   0.00000
  15        4YZ         0.77335   0.00001   0.23767   0.13654   0.00000
  16 2   H  1S          0.00002  -0.11763   0.00000   0.00000  -0.00619
  17        2S          0.00000  -0.13289   0.00000   0.00000  -0.11321
  18        3PX        -0.00001   0.25371   0.00001   0.00000  -0.29245
  19        3PY         0.00000  -0.58484  -0.00001   0.00000   0.23665
  20        3PZ        -0.15184  -0.00001   0.69546   0.68073   0.00000
  21 3   C  1S          0.00000   0.05862   0.00000   0.00000   0.07172
  22        2S         -0.00001   0.29346   0.00000   0.00000  -0.07209
  23        2PX         0.00000   0.05091   0.00000   0.00000  -0.11075
  24        2PY         0.00000   0.22542   0.00000   0.00000   0.23023
  25        2PZ        -0.01740   0.00000   0.03825  -0.05738   0.00000
  26        3S          0.00005  -1.89201  -0.00002   0.00000  -1.27192
  27        3PX         0.00001  -0.18336   0.00000   0.00000   0.00616
  28        3PY        -0.00002   1.04136   0.00001   0.00000   0.67258
  29        3PZ        -0.27336  -0.00001   0.14809  -0.09730   0.00000
  30        4XX         0.00002  -0.06040  -0.00001   0.00001   0.47612
  31        4YY         0.00000  -0.34406  -0.00001   0.00000  -0.81651
  32        4ZZ        -0.00002   0.47729   0.00002  -0.00001   0.46829
  33        4XY         0.00001   0.19130   0.00000   0.00000  -0.15295
  34        4XZ        -0.13173  -0.00001   0.43535  -0.51857   0.00000
  35        4YZ         0.77335   0.00001   0.23767  -0.13654   0.00000
  36 4   H  1S         -0.00002   0.11763   0.00000   0.00000   0.00619
  37        2S          0.00000   0.13289   0.00000   0.00000   0.11321
  38        3PX        -0.00001   0.25371   0.00001   0.00000  -0.29245
  39        3PY         0.00000  -0.58484  -0.00001   0.00000   0.23665
  40        3PZ         0.15184   0.00001  -0.69546   0.68073   0.00000
                          36        37        38        39        40
                           V         V         V         V         V
     Eigenvalues --     2.71083   3.28603   3.41497   3.97151   4.23321
   1 1   C  1S         -0.00685   0.07312   0.06468  -0.31949  -0.31967
   2        2S          0.12430  -0.54504  -0.44859   2.10574   2.12285
   3        2PX         0.14520   0.53551   0.51750   0.21003   0.21096
   4        2PY         0.00315   0.16318   0.28435   0.07343  -0.07894
   5        2PZ         0.00000  -0.00001  -0.00001   0.00000   0.00000
   6        3S         -0.07445  -0.50188  -0.61857   0.69413   1.41402
   7        3PX         0.18065   0.28468   0.36358  -0.13853  -0.08227
   8        3PY        -0.12658   0.13349   0.15327   0.03223   0.36783
   9        3PZ         0.00000   0.00000   0.00000   0.00000   0.00000
  10        4XX        -0.32062  -0.41462  -0.59137  -1.46632  -1.46211
  11        4YY         0.10737   0.29005   0.52221  -1.11857  -1.46304
  12        4ZZ         0.01268   0.42698   0.40858  -1.23276  -1.20035
  13        4XY         0.58775  -0.43282  -0.35213  -0.16528  -0.09966
  14        4XZ         0.00001   0.00001   0.00001   0.00000   0.00000
  15        4YZ         0.00000   0.00000   0.00000   0.00000   0.00000
  16 2   H  1S          0.04584   0.60289   0.66161   0.32610   0.26490
  17        2S          0.12099   0.45986   0.57987  -0.27816  -0.19254
  18        3PX        -0.05357   0.94195   0.89969   0.28970   0.29443
  19        3PY         0.64264   0.25469   0.38433   0.04137   0.08660
  20        3PZ         0.00000  -0.00001  -0.00001   0.00000   0.00000
  21 3   C  1S         -0.00685   0.07312  -0.06468  -0.31949   0.31967
  22        2S          0.12430  -0.54504   0.44859   2.10574  -2.12285
  23        2PX        -0.14520  -0.53551   0.51750  -0.21003   0.21096
  24        2PY        -0.00315  -0.16318   0.28435  -0.07343  -0.07894
  25        2PZ         0.00000  -0.00001   0.00001   0.00000   0.00000
  26        3S         -0.07445  -0.50188   0.61857   0.69413  -1.41402
  27        3PX        -0.18065  -0.28468   0.36358   0.13853  -0.08227
  28        3PY         0.12658  -0.13349   0.15327  -0.03223   0.36783
  29        3PZ         0.00000   0.00000   0.00000   0.00000   0.00000
  30        4XX        -0.32062  -0.41462   0.59137  -1.46632   1.46211
  31        4YY         0.10737   0.29005  -0.52221  -1.11857   1.46304
  32        4ZZ         0.01268   0.42698  -0.40858  -1.23276   1.20035
  33        4XY         0.58775  -0.43282   0.35213  -0.16528   0.09966
  34        4XZ        -0.00001  -0.00001   0.00001   0.00000   0.00000
  35        4YZ         0.00000   0.00000   0.00000   0.00000   0.00000
  36 4   H  1S          0.04584   0.60289  -0.66161   0.32610  -0.26490
  37        2S          0.12099   0.45986  -0.57987  -0.27816   0.19254
  38        3PX         0.05357  -0.94195   0.89969  -0.28970   0.29443
  39        3PY        -0.64264  -0.25469   0.38433  -0.04137   0.08660
  40        3PZ         0.00000  -0.00001   0.00001   0.00000   0.00000
     Density Matrix:
                           1         2         3         4         5
   1 1   C  1S          2.06276
   2        2S         -0.09572   0.40132
   3        2PX        -0.01098   0.02262   0.33959
   4        2PY         0.00590  -0.01415   0.10788   0.31016
   5        2PZ         0.00000   0.00000   0.00000   0.00000   0.32840
   6        3S         -0.21420   0.40406   0.10906  -0.03258   0.00000
   7        3PX        -0.01999   0.05075   0.16481   0.02085   0.00000
   8        3PY         0.01408  -0.03634  -0.00276   0.12639   0.00000
   9        3PZ         0.00000   0.00000   0.00000   0.00000   0.24390
  10        4XX        -0.01403  -0.00878  -0.01787  -0.01356   0.00000
  11        4YY        -0.01475  -0.00872   0.00379   0.01490   0.00000
  12        4ZZ        -0.01078  -0.01678   0.00474   0.00067   0.00000
  13        4XY        -0.00249   0.00626  -0.00193  -0.01315   0.00000
  14        4XZ         0.00000   0.00000   0.00000   0.00000  -0.00466
  15        4YZ         0.00000   0.00000   0.00000   0.00000   0.01145
  16 2   H  1S         -0.06601   0.13411  -0.21224  -0.15228   0.00000
  17        2S         -0.00891   0.02844  -0.17071  -0.13002   0.00000
  18        3PX        -0.00673   0.01272  -0.00487  -0.00587   0.00000
  19        3PY        -0.00143   0.00300  -0.00329   0.00475   0.00000
  20        3PZ         0.00000   0.00000   0.00000   0.00000   0.00924
  21 3   C  1S          0.00267  -0.00331   0.02702  -0.08546   0.00000
  22        2S         -0.00331  -0.00156  -0.05581   0.18065   0.00000
  23        2PX        -0.02702   0.05581   0.17415  -0.15018   0.00000
  24        2PY         0.08546  -0.18065  -0.15018  -0.21487   0.00000
  25        2PZ         0.00000   0.00000   0.00000   0.00000   0.32840
  26        3S          0.04152  -0.07977  -0.11463   0.20568   0.00000
  27        3PX        -0.02529   0.05225   0.10805  -0.07313   0.00000
  28        3PY         0.03186  -0.07628  -0.10727  -0.07078   0.00000
  29        3PZ         0.00000   0.00000   0.00000   0.00000   0.24390
  30        4XX         0.00108  -0.00317   0.00389  -0.01606   0.00000
  31        4YY        -0.00777   0.01486   0.00503   0.00380   0.00000
  32        4ZZ         0.00156  -0.00357  -0.00097  -0.00530   0.00000
  33        4XY         0.00236  -0.00491  -0.01094  -0.00764   0.00000
  34        4XZ         0.00000   0.00000   0.00000   0.00000   0.00466
  35        4YZ         0.00000   0.00000   0.00000   0.00000  -0.01145
  36 4   H  1S          0.00376  -0.01209   0.03063  -0.08289   0.00000
  37        2S          0.00394  -0.00896   0.01870  -0.11339   0.00000
  38        3PX        -0.00081   0.00170   0.00166  -0.00115   0.00000
  39        3PY         0.00197  -0.00416  -0.00619  -0.00411   0.00000
  40        3PZ         0.00000   0.00000   0.00000   0.00000   0.00924
                           6         7         8         9        10
   6        3S          0.44718
   7        3PX         0.09813   0.08717
   8        3PY        -0.05605  -0.01810   0.06136
   9        3PZ         0.00000   0.00000   0.00000   0.18114
  10        4XX        -0.01095  -0.00850  -0.00297   0.00000   0.00146
  11        4YY        -0.00972  -0.00053   0.00642   0.00000  -0.00029
  12        4ZZ        -0.01413   0.00085   0.00077   0.00000   0.00025
  13        4XY         0.00735   0.00094  -0.00634   0.00000   0.00035
  14        4XZ         0.00000   0.00000   0.00000  -0.00346   0.00000
  15        4YZ         0.00000   0.00000   0.00000   0.00850   0.00000
  16 2   H  1S          0.09294  -0.08008  -0.04730   0.00000   0.01096
  17        2S         -0.00481  -0.07127  -0.03678   0.00000   0.01047
  18        3PX         0.01219  -0.00067  -0.00280   0.00000   0.00015
  19        3PY         0.00128  -0.00190   0.00250   0.00000  -0.00006
  20        3PZ         0.00000   0.00000   0.00000   0.00687   0.00000
  21 3   C  1S          0.04152   0.02529  -0.03186   0.00000   0.00108
  22        2S         -0.07977  -0.05225   0.07628   0.00000  -0.00317
  23        2PX         0.11463   0.10805  -0.10727   0.00000  -0.00389
  24        2PY        -0.20568  -0.07313  -0.07078   0.00000   0.01606
  25        2PZ         0.00000   0.00000   0.00000   0.24390   0.00000
  26        3S         -0.17704  -0.09202   0.10321   0.00000  -0.00002
  27        3PX         0.09202   0.06744  -0.05547   0.00000  -0.00332
  28        3PY        -0.10321  -0.05547  -0.01418   0.00000   0.00805
  29        3PZ         0.00000   0.00000   0.00000   0.18114   0.00000
  30        4XX        -0.00002   0.00332  -0.00805   0.00000   0.00038
  31        4YY         0.01690   0.00373   0.00052   0.00000  -0.00059
  32        4ZZ        -0.00144  -0.00006  -0.00133   0.00000   0.00028
  33        4XY        -0.00797  -0.00539  -0.00199   0.00000   0.00077
  34        4XZ         0.00000   0.00000   0.00000   0.00346   0.00000
  35        4YZ         0.00000   0.00000   0.00000  -0.00850   0.00000
  36 4   H  1S         -0.01538   0.01989  -0.05401   0.00000   0.00135
  37        2S          0.00054   0.01885  -0.06099   0.00000   0.00273
  38        3PX         0.00386   0.00133  -0.00020   0.00000  -0.00006
  39        3PY        -0.00507  -0.00309  -0.00054   0.00000   0.00046
  40        3PZ         0.00000   0.00000   0.00000   0.00687   0.00000
                          11        12        13        14        15
  11        4YY         0.00117
  12        4ZZ         0.00044   0.00092
  13        4XY        -0.00066  -0.00024   0.00071
  14        4XZ         0.00000   0.00000   0.00000   0.00007
  15        4YZ         0.00000   0.00000   0.00000  -0.00016   0.00040
  16 2   H  1S         -0.00891  -0.00860   0.00712   0.00000   0.00000
  17        2S         -0.00592  -0.00369   0.00511   0.00000   0.00000
  18        3PX        -0.00049  -0.00058   0.00040   0.00000   0.00000
  19        3PY         0.00017  -0.00021  -0.00020   0.00000   0.00000
  20        3PZ         0.00000   0.00000   0.00000  -0.00013   0.00032
  21 3   C  1S         -0.00777   0.00156   0.00236   0.00000   0.00000
  22        2S          0.01486  -0.00357  -0.00491   0.00000   0.00000
  23        2PX        -0.00503   0.00097   0.01094   0.00000   0.00000
  24        2PY        -0.00380   0.00530   0.00764   0.00000   0.00000
  25        2PZ         0.00000   0.00000   0.00000  -0.00466   0.01145
  26        3S          0.01690  -0.00144  -0.00797   0.00000   0.00000
  27        3PX        -0.00373   0.00006   0.00539   0.00000   0.00000
  28        3PY        -0.00052   0.00133   0.00199   0.00000   0.00000
  29        3PZ         0.00000   0.00000   0.00000  -0.00346   0.00850
  30        4XX        -0.00059   0.00028   0.00077   0.00000   0.00000
  31        4YY        -0.00031  -0.00048  -0.00006   0.00000   0.00000
  32        4ZZ        -0.00048   0.00024   0.00000   0.00000   0.00000
  33        4XY        -0.00006   0.00000   0.00030   0.00000   0.00000
  34        4XZ         0.00000   0.00000   0.00000  -0.00007   0.00016
  35        4YZ         0.00000   0.00000   0.00000   0.00016  -0.00040
  36 4   H  1S          0.00119   0.00036   0.00674   0.00000   0.00000
  37        2S         -0.00248   0.00072   0.00676   0.00000   0.00000
  38        3PX        -0.00037   0.00004  -0.00008   0.00000   0.00000
  39        3PY        -0.00016   0.00010   0.00005   0.00000   0.00000
  40        3PZ         0.00000   0.00000   0.00000  -0.00013   0.00032
                          16        17        18        19        20
  16 2   H  1S          0.21006
  17        2S          0.14265   0.11058
  18        3PX         0.00896   0.00473   0.00055
  19        3PY         0.00157   0.00033   0.00007   0.00019
  20        3PZ         0.00000   0.00000   0.00000   0.00000   0.00026
  21 3   C  1S          0.00376   0.00394   0.00081  -0.00197   0.00000
  22        2S         -0.01209  -0.00896  -0.00170   0.00416   0.00000
  23        2PX        -0.03063  -0.01870   0.00166  -0.00619   0.00000
  24        2PY         0.08289   0.11339  -0.00115  -0.00411   0.00000
  25        2PZ         0.00000   0.00000   0.00000   0.00000   0.00924
  26        3S         -0.01538   0.00054  -0.00386   0.00507   0.00000
  27        3PX        -0.01989  -0.01885   0.00133  -0.00309   0.00000
  28        3PY         0.05401   0.06099  -0.00020  -0.00054   0.00000
  29        3PZ         0.00000   0.00000   0.00000   0.00000   0.00687
  30        4XX         0.00135   0.00273   0.00006  -0.00046   0.00000
  31        4YY         0.00119  -0.00248   0.00037   0.00016   0.00000
  32        4ZZ         0.00036   0.00072  -0.00004  -0.00010   0.00000
  33        4XY         0.00674   0.00676   0.00008  -0.00005   0.00000
  34        4XZ         0.00000   0.00000   0.00000   0.00000   0.00013
  35        4YZ         0.00000   0.00000   0.00000   0.00000  -0.00032
  36 4   H  1S          0.00821   0.02173   0.00035  -0.00305   0.00000
  37        2S          0.02173   0.02942   0.00099  -0.00322   0.00000
  38        3PX        -0.00035  -0.00099   0.00005   0.00000   0.00000
  39        3PY         0.00305   0.00322   0.00000  -0.00001   0.00000
  40        3PZ         0.00000   0.00000   0.00000   0.00000   0.00026
                          21        22        23        24        25
  21 3   C  1S          2.06276
  22        2S         -0.09572   0.40132
  23        2PX         0.01098  -0.02262   0.33959
  24        2PY        -0.00590   0.01415   0.10788   0.31016
  25        2PZ         0.00000   0.00000   0.00000   0.00000   0.32840
  26        3S         -0.21420   0.40406  -0.10906   0.03258   0.00000
  27        3PX         0.01999  -0.05075   0.16481   0.02085   0.00000
  28        3PY        -0.01408   0.03634  -0.00276   0.12639   0.00000
  29        3PZ         0.00000   0.00000   0.00000   0.00000   0.24390
  30        4XX        -0.01403  -0.00878   0.01787   0.01356   0.00000
  31        4YY        -0.01475  -0.00872  -0.00379  -0.01490   0.00000
  32        4ZZ        -0.01078  -0.01678  -0.00474  -0.00067   0.00000
  33        4XY        -0.00249   0.00626   0.00193   0.01315   0.00000
  34        4XZ         0.00000   0.00000   0.00000   0.00000   0.00466
  35        4YZ         0.00000   0.00000   0.00000   0.00000  -0.01145
  36 4   H  1S         -0.06601   0.13411   0.21224   0.15228   0.00000
  37        2S         -0.00891   0.02844   0.17071   0.13002   0.00000
  38        3PX         0.00673  -0.01272  -0.00487  -0.00587   0.00000
  39        3PY         0.00143  -0.00300  -0.00329   0.00475   0.00000
  40        3PZ         0.00000   0.00000   0.00000   0.00000   0.00924
                          26        27        28        29        30
  26        3S          0.44718
  27        3PX        -0.09813   0.08717
  28        3PY         0.05605  -0.01810   0.06136
  29        3PZ         0.00000   0.00000   0.00000   0.18114
  30        4XX        -0.01095   0.00850   0.00297   0.00000   0.00146
  31        4YY        -0.00972   0.00053  -0.00642   0.00000  -0.00029
  32        4ZZ        -0.01413  -0.00085  -0.00077   0.00000   0.00025
  33        4XY         0.00735  -0.00094   0.00634   0.00000   0.00035
  34        4XZ         0.00000   0.00000   0.00000   0.00346   0.00000
  35        4YZ         0.00000   0.00000   0.00000  -0.00850   0.00000
  36 4   H  1S          0.09294   0.08008   0.04730   0.00000   0.01096
  37        2S         -0.00481   0.07127   0.03678   0.00000   0.01047
  38        3PX        -0.01219  -0.00067  -0.00280   0.00000  -0.00015
  39        3PY        -0.00128  -0.00190   0.00250   0.00000   0.00006
  40        3PZ         0.00000   0.00000   0.00000   0.00687   0.00000
                          31        32        33        34        35
  31        4YY         0.00117
  32        4ZZ         0.00044   0.00092
  33        4XY        -0.00066  -0.00024   0.00071
  34        4XZ         0.00000   0.00000   0.00000   0.00007
  35        4YZ         0.00000   0.00000   0.00000  -0.00016   0.00040
  36 4   H  1S         -0.00891  -0.00860   0.00712   0.00000   0.00000
  37        2S         -0.00592  -0.00369   0.00511   0.00000   0.00000
  38        3PX         0.00049   0.00058  -0.00040   0.00000   0.00000
  39        3PY        -0.00017   0.00021   0.00020   0.00000   0.00000
  40        3PZ         0.00000   0.00000   0.00000   0.00013  -0.00032
                          36        37        38        39        40
  36 4   H  1S          0.21006
  37        2S          0.14265   0.11058
  38        3PX        -0.00896  -0.00473   0.00055
  39        3PY        -0.00157  -0.00033   0.00007   0.00019
  40        3PZ         0.00000   0.00000   0.00000   0.00000   0.00026
    Full Mulliken population analysis:
                           1         2         3         4         5
   1 1   C  1S          2.06276
   2        2S         -0.02097   0.40132
   3        2PX         0.00000   0.00000   0.33959
   4        2PY         0.00000   0.00000   0.00000   0.31016
   5        2PZ         0.00000   0.00000   0.00000   0.00000   0.32840
   6        3S         -0.03947   0.32820   0.00000   0.00000   0.00000
   7        3PX         0.00000   0.00000   0.09390   0.00000   0.00000
   8        3PY         0.00000   0.00000   0.00000   0.07201   0.00000
   9        3PZ         0.00000   0.00000   0.00000   0.00000   0.13896
  10        4XX        -0.00111  -0.00624   0.00000   0.00000   0.00000
  11        4YY        -0.00117  -0.00620   0.00000   0.00000   0.00000
  12        4ZZ        -0.00085  -0.01192   0.00000   0.00000   0.00000
  13        4XY         0.00000   0.00000   0.00000   0.00000   0.00000
  14        4XZ         0.00000   0.00000   0.00000   0.00000   0.00000
  15        4YZ         0.00000   0.00000   0.00000   0.00000   0.00000
  16 2   H  1S         -0.00236   0.03842   0.07645   0.01939   0.00000
  17        2S         -0.00084   0.01380   0.04282   0.01153   0.00000
  18        3PX        -0.00033   0.00362   0.00151   0.00098   0.00000
  19        3PY        -0.00002   0.00030   0.00055   0.00049   0.00000
  20        3PZ         0.00000   0.00000   0.00000   0.00000   0.00150
  21 3   C  1S          0.00000  -0.00002   0.00000  -0.00157   0.00000
  22        2S         -0.00002  -0.00019   0.00000   0.03366   0.00000
  23        2PX         0.00000   0.00000   0.01114   0.00000   0.00000
  24        2PY        -0.00157   0.03366   0.00000   0.05446   0.00000
  25        2PZ         0.00000   0.00000   0.00000   0.00000   0.02100
  26        3S          0.00193  -0.02225   0.00000   0.04584   0.00000
  27        3PX         0.00000   0.00000   0.02014   0.00000   0.00000
  28        3PY        -0.00341   0.03815   0.00000   0.01622   0.00000
  29        3PZ         0.00000   0.00000   0.00000   0.00000   0.04547
  30        4XX         0.00000  -0.00015   0.00000  -0.00135   0.00000
  31        4YY        -0.00014   0.00329   0.00000   0.00119   0.00000
  32        4ZZ         0.00000  -0.00017   0.00000  -0.00044   0.00000
  33        4XY         0.00000   0.00000   0.00114   0.00000   0.00000
  34        4XZ         0.00000   0.00000   0.00000   0.00000   0.00000
  35        4YZ         0.00000   0.00000   0.00000   0.00000   0.00120
  36 4   H  1S          0.00000  -0.00009   0.00023  -0.00116   0.00000
  37        2S          0.00005  -0.00095   0.00097  -0.01109   0.00000
  38        3PX         0.00000  -0.00001   0.00000   0.00001   0.00000
  39        3PY         0.00000   0.00003   0.00005   0.00005   0.00000
  40        3PZ         0.00000   0.00000   0.00000   0.00000   0.00001
                           6         7         8         9        10
   6        3S          0.44718
   7        3PX         0.00000   0.08717
   8        3PY         0.00000   0.00000   0.06136
   9        3PZ         0.00000   0.00000   0.00000   0.18114
  10        4XX        -0.00690   0.00000   0.00000   0.00000   0.00146
  11        4YY        -0.00612   0.00000   0.00000   0.00000  -0.00010
  12        4ZZ        -0.00890   0.00000   0.00000   0.00000   0.00008
  13        4XY         0.00000   0.00000   0.00000   0.00000   0.00000
  14        4XZ         0.00000   0.00000   0.00000   0.00000   0.00000
  15        4YZ         0.00000   0.00000   0.00000   0.00000   0.00000
  16 2   H  1S          0.03579   0.03898   0.00814   0.00000   0.00475
  17        2S         -0.00343   0.03892   0.00710   0.00000   0.00449
  18        3PX         0.00200   0.00001   0.00022   0.00000   0.00005
  19        3PY         0.00007   0.00015   0.00045   0.00000  -0.00001
  20        3PZ         0.00000   0.00000   0.00000   0.00143   0.00000
  21 3   C  1S          0.00193   0.00000  -0.00341   0.00000   0.00000
  22        2S         -0.02225   0.00000   0.03815   0.00000  -0.00015
  23        2PX         0.00000   0.02014   0.00000   0.00000   0.00000
  24        2PY         0.04584   0.00000   0.01622   0.00000  -0.00135
  25        2PZ         0.00000   0.00000   0.00000   0.04547   0.00000
  26        3S         -0.08666   0.00000   0.06039   0.00000   0.00000
  27        3PX         0.00000   0.03301   0.00000   0.00000   0.00000
  28        3PY         0.06039   0.00000   0.00298   0.00000  -0.00308
  29        3PZ         0.00000   0.00000   0.00000   0.08866   0.00000
  30        4XX         0.00000   0.00000  -0.00308   0.00000   0.00001
  31        4YY         0.00490   0.00000   0.00021   0.00000  -0.00005
  32        4ZZ        -0.00028   0.00000  -0.00051   0.00000   0.00000
  33        4XY         0.00000   0.00075   0.00000   0.00000   0.00000
  34        4XZ         0.00000   0.00000   0.00000   0.00000   0.00000
  35        4YZ         0.00000   0.00000   0.00000   0.00119   0.00000
  36 4   H  1S         -0.00110   0.00179  -0.00914   0.00000   0.00001
  37        2S          0.00014   0.00371  -0.02254   0.00000   0.00022
  38        3PX        -0.00010   0.00000   0.00001   0.00000   0.00000
  39        3PY         0.00025   0.00021   0.00005   0.00000   0.00000
  40        3PZ         0.00000   0.00000   0.00000   0.00023   0.00000
                          11        12        13        14        15
  11        4YY         0.00117
  12        4ZZ         0.00015   0.00092
  13        4XY         0.00000   0.00000   0.00071
  14        4XZ         0.00000   0.00000   0.00000   0.00007
  15        4YZ         0.00000   0.00000   0.00000   0.00000   0.00040
  16 2   H  1S         -0.00145  -0.00107   0.00135   0.00000   0.00000
  17        2S         -0.00218  -0.00132   0.00022   0.00000   0.00000
  18        3PX        -0.00009  -0.00007   0.00010   0.00000   0.00000
  19        3PY        -0.00001  -0.00001   0.00003   0.00000   0.00000
  20        3PZ         0.00000   0.00000   0.00000   0.00004  -0.00003
  21 3   C  1S         -0.00014   0.00000   0.00000   0.00000   0.00000
  22        2S          0.00329  -0.00017   0.00000   0.00000   0.00000
  23        2PX         0.00000   0.00000   0.00114   0.00000   0.00000
  24        2PY         0.00119  -0.00044   0.00000   0.00000   0.00000
  25        2PZ         0.00000   0.00000   0.00000   0.00000   0.00120
  26        3S          0.00490  -0.00028   0.00000   0.00000   0.00000
  27        3PX         0.00000   0.00000   0.00075   0.00000   0.00000
  28        3PY         0.00021  -0.00051   0.00000   0.00000   0.00000
  29        3PZ         0.00000   0.00000   0.00000   0.00000   0.00119
  30        4XX        -0.00005   0.00000   0.00000   0.00000   0.00000
  31        4YY        -0.00012  -0.00004   0.00000   0.00000   0.00000
  32        4ZZ        -0.00004   0.00001   0.00000   0.00000   0.00000
  33        4XY         0.00000   0.00000  -0.00006   0.00000   0.00000
  34        4XZ         0.00000   0.00000   0.00000   0.00000   0.00000
  35        4YZ         0.00000   0.00000   0.00000   0.00000   0.00008
  36 4   H  1S          0.00001   0.00000   0.00007   0.00000   0.00000
  37        2S         -0.00029   0.00005   0.00029   0.00000   0.00000
  38        3PX         0.00000   0.00000   0.00000   0.00000   0.00000
  39        3PY         0.00000   0.00000   0.00000   0.00000   0.00000
  40        3PZ         0.00000   0.00000   0.00000   0.00000   0.00000
                          16        17        18        19        20
  16 2   H  1S          0.21006
  17        2S          0.09391   0.11058
  18        3PX         0.00000   0.00000   0.00055
  19        3PY         0.00000   0.00000   0.00000   0.00019
  20        3PZ         0.00000   0.00000   0.00000   0.00000   0.00026
  21 3   C  1S          0.00000   0.00005   0.00000   0.00000   0.00000
  22        2S         -0.00009  -0.00095  -0.00001   0.00003   0.00000
  23        2PX         0.00023   0.00097   0.00000   0.00005   0.00000
  24        2PY        -0.00116  -0.01109   0.00001   0.00005   0.00000
  25        2PZ         0.00000   0.00000   0.00000   0.00000   0.00001
  26        3S         -0.00110   0.00014  -0.00010   0.00025   0.00000
  27        3PX         0.00179   0.00371   0.00000   0.00021   0.00000
  28        3PY        -0.00914  -0.02254   0.00001   0.00005   0.00000
  29        3PZ         0.00000   0.00000   0.00000   0.00000   0.00023
  30        4XX         0.00001   0.00022   0.00000   0.00000   0.00000
  31        4YY         0.00001  -0.00029   0.00000   0.00000   0.00000
  32        4ZZ         0.00000   0.00005   0.00000   0.00000   0.00000
  33        4XY         0.00007   0.00029   0.00000   0.00000   0.00000
  34        4XZ         0.00000   0.00000   0.00000   0.00000   0.00000
  35        4YZ         0.00000   0.00000   0.00000   0.00000   0.00000
  36 4   H  1S          0.00000   0.00020   0.00000   0.00000   0.00000
  37        2S          0.00020   0.00211   0.00001  -0.00002   0.00000
  38        3PX         0.00000   0.00001   0.00000   0.00000   0.00000
  39        3PY         0.00000  -0.00002   0.00000   0.00000   0.00000
  40        3PZ         0.00000   0.00000   0.00000   0.00000   0.00000
                          21        22        23        24        25
  21 3   C  1S          2.06276
  22        2S         -0.02097   0.40132
  23        2PX         0.00000   0.00000   0.33959
  24        2PY         0.00000   0.00000   0.00000   0.31016
  25        2PZ         0.00000   0.00000   0.00000   0.00000   0.32840
  26        3S         -0.03947   0.32820   0.00000   0.00000   0.00000
  27        3PX         0.00000   0.00000   0.09390   0.00000   0.00000
  28        3PY         0.00000   0.00000   0.00000   0.07201   0.00000
  29        3PZ         0.00000   0.00000   0.00000   0.00000   0.13896
  30        4XX        -0.00111  -0.00624   0.00000   0.00000   0.00000
  31        4YY        -0.00117  -0.00620   0.00000   0.00000   0.00000
  32        4ZZ        -0.00085  -0.01192   0.00000   0.00000   0.00000
  33        4XY         0.00000   0.00000   0.00000   0.00000   0.00000
  34        4XZ         0.00000   0.00000   0.00000   0.00000   0.00000
  35        4YZ         0.00000   0.00000   0.00000   0.00000   0.00000
  36 4   H  1S         -0.00236   0.03842   0.07645   0.01939   0.00000
  37        2S         -0.00084   0.01380   0.04282   0.01153   0.00000
  38        3PX        -0.00033   0.00362   0.00151   0.00098   0.00000
  39        3PY        -0.00002   0.00030   0.00055   0.00049   0.00000
  40        3PZ         0.00000   0.00000   0.00000   0.00000   0.00150
                          26        27        28        29        30
  26        3S          0.44718
  27        3PX         0.00000   0.08717
  28        3PY         0.00000   0.00000   0.06136
  29        3PZ         0.00000   0.00000   0.00000   0.18114
  30        4XX        -0.00690   0.00000   0.00000   0.00000   0.00146
  31        4YY        -0.00612   0.00000   0.00000   0.00000  -0.00010
  32        4ZZ        -0.00890   0.00000   0.00000   0.00000   0.00008
  33        4XY         0.00000   0.00000   0.00000   0.00000   0.00000
  34        4XZ         0.00000   0.00000   0.00000   0.00000   0.00000
  35        4YZ         0.00000   0.00000   0.00000   0.00000   0.00000
  36 4   H  1S          0.03579   0.03898   0.00814   0.00000   0.00475
  37        2S         -0.00343   0.03892   0.00710   0.00000   0.00449
  38        3PX         0.00200   0.00001   0.00022   0.00000   0.00005
  39        3PY         0.00007   0.00015   0.00045   0.00000  -0.00001
  40        3PZ         0.00000   0.00000   0.00000   0.00143   0.00000
                          31        32        33        34        35
  31        4YY         0.00117
  32        4ZZ         0.00015   0.00092
  33        4XY         0.00000   0.00000   0.00071
  34        4XZ         0.00000   0.00000   0.00000   0.00007
  35        4YZ         0.00000   0.00000   0.00000   0.00000   0.00040
  36 4   H  1S         -0.00145  -0.00107   0.00135   0.00000   0.00000
  37        2S         -0.00218  -0.00132   0.00022   0.00000   0.00000
  38        3PX        -0.00009  -0.00007   0.00010   0.00000   0.00000
  39        3PY        -0.00001  -0.00001   0.00003   0.00000   0.00000
  40        3PZ         0.00000   0.00000   0.00000   0.00004  -0.00003
                          36        37        38        39        40
  36 4   H  1S          0.21006
  37        2S          0.09391   0.11058
  38        3PX         0.00000   0.00000   0.00055
  39        3PY         0.00000   0.00000   0.00000   0.00019
  40        3PZ         0.00000   0.00000   0.00000   0.00000   0.00026
     Gross orbital populations:
                           1
   1 1   C  1S          1.99248
   2        2S          0.79164
   3        2PX         0.58849
   4        2PY         0.55038
   5        2PZ         0.53654
   6        3S          0.75147
   7        3PX         0.31874
   8        3PY         0.22862
   9        3PZ         0.45708
  10        4XX        -0.00790
  11        4YY        -0.00702
  12        4ZZ        -0.02438
  13        4XY         0.00460
  14        4XZ         0.00010
  15        4YZ         0.00283
  16 2   H  1S          0.51317
  17        2S          0.28846
  18        3PX         0.00845
  19        3PY         0.00281
  20        3PZ         0.00344
  21 3   C  1S          1.99248
  22        2S          0.79164
  23        2PX         0.58849
  24        2PY         0.55038
  25        2PZ         0.53654
  26        3S          0.75147
  27        3PX         0.31874
  28        3PY         0.22862
  29        3PZ         0.45708
  30        4XX        -0.00790
  31        4YY        -0.00702
  32        4ZZ        -0.02438
  33        4XY         0.00460
  34        4XZ         0.00010
  35        4YZ         0.00283
  36 4   H  1S          0.51317
  37        2S          0.28846
  38        3PX         0.00845
  39        3PY         0.00281
  40        3PZ         0.00344
          Condensed to atoms (all electrons):
              1          2          3          4
     1  C    5.270539   0.342418   0.608721  -0.038014
     2  H    0.342418   0.509449  -0.038014   0.002482
     3  C    0.608721  -0.038014   5.270539   0.342418
     4  H   -0.038014   0.002482   0.342418   0.509449
 Mulliken atomic charges:
              1
     1  C   -0.183665
     2  H    0.183665
     3  C   -0.183665
     4  H    0.183665
 Sum of Mulliken atomic charges =   0.00000
 Mulliken charges with hydrogens summed into heavy atoms:
              1
     1  C    0.000000
     3  C    0.000000
 Sum of Mulliken charges with hydrogens summed into heavy atoms =   0.00000
 Electronic spatial extent (au):  <R**2>=             68.6588
 Charge=              0.0000 electrons
 Dipole moment (field-independent basis, Debye):
    X=              0.0000    Y=              0.0000    Z=              0.0001  Tot=              0.0001
 Quadrupole moment (field-independent basis, Debye-Ang):
   XX=            -11.1917   YY=            -10.8760   ZZ=            -14.1364
   XY=              1.8297   XZ=              0.0000   YZ=              0.0000
 Traceless Quadrupole moment (field-independent basis, Debye-Ang):
   XX=              0.8764   YY=              1.1920   ZZ=             -2.0684
   XY=              1.8297   XZ=              0.0000   YZ=              0.0000
 Octapole moment (field-independent basis, Debye-Ang**2):
  XXX=              0.0000  YYY=              0.0000  ZZZ=              0.0001  XYY=              0.0000
  XXY=              0.0000  XXZ=              0.0000  XZZ=              0.0000  YZZ=              0.0000
  YYZ=              0.0001  XYZ=              0.0000
 Hexadecapole moment (field-independent basis, Debye-Ang**3):
 XXXX=            -18.6040 YYYY=            -60.1736 ZZZZ=            -15.4679 XXXY=             -1.3033
 XXXZ=              0.0000 YYYX=             -2.7391 YYYZ=              0.0000 ZZZX=              0.0000
 ZZZY=              0.0000 XXYY=            -11.5711 XXZZ=             -6.2321 YYZZ=            -13.3544
 XXYZ=              0.0000 YYXZ=              0.0000 ZZXY=             -1.4388
 N-N= 2.143596694579D+01 E-N=-2.211899097107D+02  KE= 7.605546475363D+01
 Symmetry A    KE= 3.919958498185D+01
 Symmetry B    KE= 3.685587977178D+01
 Orbital energies and kinetic energies (alpha):
                                 1                 2
   1         O               -10.259838         15.888045
   2         O               -10.259610         15.893534
   3         O                -0.719056          1.436071
   4         O                -0.575111          1.307623
   5         O                -0.384657          1.233446
   6         O                -0.318742          1.226783
   7         O                -0.256854          1.042230
   8         V                -0.144456          1.289598
   9         V                -0.036881          1.318271
  10         V                 0.150006          0.895697
  11         V                 0.158959          1.059698
  12         V                 0.235437          1.570953
  13         V                 0.524956          1.612646
  14         V                 0.544702          2.075112
  15         V                 0.545732          2.194268
  16         V                 0.578672          2.057679
  17         V                 0.585148          2.019647
  18         V                 0.606226          2.103814
  19         V                 0.756709          1.562925
  20         V                 0.868689          2.402671
  21         V                 0.901056          2.469293
  22         V                 0.989419          2.082586
  23         V                 1.397371          2.483355
  24         V                 1.458824          2.535294
  25         V                 1.463477          2.509379
[...]
 Iteration100 RMS(Cart)=************ RMS(Int)=************
 Old curvilinear step not converged, using linear step
 ClnCor:  largest displacement from symmetrization is 3.22D-14 for atom     3.
 TrRot=  0.000000  0.000000  0.000000  0.000000  0.000000  0.000000
 Variable       Old X    -DE/DX   Delta X   Delta X   Delta X     New X
                                 (Linear)    (Quad)   (Total)
    R1        2.01669   0.00011   0.00023   0.00004   0.00026   2.01695
    R2        2.28053   0.00014   0.00014  -0.00004   0.00010   2.28063
    R3        2.01669   0.00011   0.00023   0.00004   0.00026   2.01695
    A1        3.13901   0.00009   0.00263   0.00000   0.00254   3.14155
    A2        3.13901   0.00009   0.00263   0.00000   0.00254   3.14155
    D1        3.14157   0.00000   0.00000   0.00000   0.00000   3.14157
         Item               Value     Threshold  Converged?
 Maximum Force            0.000137     0.000015     NO 
 RMS     Force            0.000098     0.000010     NO 
 Maximum Displacement     0.001187     0.000060     NO 
 RMS     Displacement     0.001056     0.000040     NO 
 Predicted change in Energy=-2.533451D-07
 GradGradGradGradGradGradGradGradGradGradGradGradGradGradGradGradGradGrad

 Leave Link  103 at Mon Mar 14 13:30:29 2022, MaxMem=  536870912 cpu:       0.2
 (Enter /opt/gridunesp/dist/gaussian/g09/l202.exe)
                          Input orientation:                          
 ---------------------------------------------------------------------
 Center     Atomic      Atomic             Coordinates (Angstroms)
 Number     Number       Type             X           Y           Z
 ---------------------------------------------------------------------
      1          6           0       -2.836171    0.329118    0.384053
      2          1           0       -2.824608   -0.603239   -0.135331
      3          6           0       -2.849276    1.383384    0.971300
      4          1           0       -2.860839    2.315741    1.490683
 ---------------------------------------------------------------------
                    Distance matrix (angstroms):
                    1          2          3          4
     1  C    0.000000
     2  H    1.067325   0.000000
     3  C    1.206859   2.274184   0.000000
     4  H    2.274184   3.341508   1.067325   0.000000
 Stoichiometry    C2H2
 Framework group  C*V[C*(HCCH)]
 Deg. of freedom     3
 Full point group                 C*V     NOp   4
 Omega: Change in point group or standard orientation.

 Old FWG=C02  [X(C2H2)]
 New FWG=C*V  [C*(H1C1C1H1)]
 Largest Abelian subgroup         C2V     NOp   4
 Largest concise Abelian subgroup C1      NOp   1
                         Standard orientation:                         
 ---------------------------------------------------------------------
 Center     Atomic      Atomic             Coordinates (Angstroms)
 Number     Number       Type             X           Y           Z
 ---------------------------------------------------------------------
      1          6           0        0.000000    0.000000    0.603430
      2          1           0        0.000000    0.000000    1.670754
      3          6           0        0.000000    0.000000   -0.603430
      4          1           0        0.000000    0.000000   -1.670754
 ---------------------------------------------------------------------
 Rotational constants (GHZ):      0.0000000     35.1798539     35.1798539
 Leave Link  202 at Mon Mar 14 13:30:29 2022, MaxMem=  536870912 cpu:       0.1
 (Enter /opt/gridunesp/dist/gaussian/g09/l301.exe)
 Standard basis: 6-31G(d,p) (6D, 7F)
 Ernie: Thresh=  0.10000D-02 Tol=  0.10000D-05 Strict=F.
 There are    22 symmetry adapted basis functions of A1  symmetry.
 There are     2 symmetry adapted basis functions of A2  symmetry.
 There are     8 symmetry adapted basis functions of B1  symmetry.
 There are     8 symmetry adapted basis functions of B2  symmetry.
 Integral buffers will be    131072 words long.
 Raffenetti 2 integral format.
 Two-electron integral symmetry is turned on.
    40 basis functions,    70 primitive gaussians,    40 cartesian basis functions
     7 alpha electrons        7 beta electrons
       nuclear repulsion energy        24.6852934005 Hartrees.
 IExCor=  402 DFT=T Ex+Corr=B3LYP ExCW=0 ScaHFX=  0.200000
 ScaDFX=  0.800000  0.720000  1.000000  0.810000 ScalE2=  1.000000  1.000000
 IRadAn=      0 IRanWt=     -1 IRanGd=            0 ICorTp=0
 NAtoms=    4 NActive=    4 NUniq=    4 SFac= 7.50D-01 NAtFMM=   80 NAOKFM=F Big=F
 ------------------------------------------------------------------------------
 Polarizable Continuum Model (PCM)
 =================================
 Model                : PCM.
 Atomic radii         : UFF (Universal Force Field).
 Polarization charges : Total charges.
 Charge compensation  : None.
 Solution method      : Matrix inversion.
 Cavity type          : Scaled VdW (van der Waals Surface) (Alpha=1.100).
 Cavity algorithm     : GePol (No added spheres)
                        Default sphere list used, NSphG=    4.
                        Lebedev-Laikov grids with approx.  5.0 points / Ang**2.
                        Smoothing algorithm: Karplus/York (Gamma=1.0000).
                        Polarization charges: spherical gaussians, with
                                              point-specific exponents (IZeta= 3).
                        Self-potential: point-specific (ISelfS= 7).
                        Self-field    : sphere-specific E.n sum rule (ISelfD= 2).
 1st derivatives      : Analytical E(r).r(x)/FMM algorithm (CHGder, D1EAlg=3).
                        Cavity 1st derivative terms included.
 Solvent              : Water, Eps=  78.355300 Eps(inf)=   1.777849
 ------------------------------------------------------------------------------
 Spheres list:
 ISph  on   Nord    Re0     Alpha      Xe            Ye            Ze
    1   C      1    1.925   1.100      0.000000      0.000000      0.603430
    2   H      2    1.443   1.100      0.000000      0.000000      1.670754
    3   C      3    1.925   1.100      0.000000      0.000000     -0.603430
    4   H      4    1.443   1.100      0.000000      0.000000     -1.670754
 ------------------------------------------------------------------------------
 GePol: Number of generator spheres                  =       4
 GePol: Total number of spheres                      =       4
 GePol: Number of exposed spheres                    =       4 (100.00%)
 GePol: Number of points                             =     506
 GePol: Average weight of points                     =       0.16
 GePol: Minimum weight of points                     =   0.50D-02
 GePol: Maximum weight of points                     =    0.20577
 GePol: Number of points with low weight             =       0
 GePol: Fraction of low-weight points (<1% of avg)   =       0.00%
 GePol: Cavity surface area                          =     78.725 Ang**2
 GePol: Cavity volume                                =     61.788 Ang**3
 Leave Link  301 at Mon Mar 14 13:30:30 2022, MaxMem=  536870912 cpu:       0.4
 (Enter /opt/gridunesp/dist/gaussian/g09/l302.exe)
 NPDir=0 NMtPBC=     1 NCelOv=     1 NCel=       1 NClECP=     1 NCelD=      1
         NCelK=      1 NCelE2=     1 NClLst=     1 CellRange=     0.0.
 One-electron integrals computed using PRISM.
 NBasis=    40 RedAO= T  NBF=    22     2     8     8
 NBsUse=    40 1.00D-06 NBFU=    22     2     8     8
 Precomputing XC quadrature grid using
 IXCGrd= 2 IRadAn=           0 IRanWt=          -1 IRanGd=           0 AccXCQ= 1.00D-10.
 NRdTot=     244 NPtTot=       30968 NUsed=       32741 NTot=       32773
 NSgBfM=    40    40    40    40    40 NAtAll=     4     4.
 Leave Link  302 at Mon Mar 14 13:30:30 2022, MaxMem=  536870912 cpu:       2.1
 (Enter /opt/gridunesp/dist/gaussian/g09/l303.exe)
 DipDrv:  MaxL=1.
 Leave Link  303 at Mon Mar 14 13:30:30 2022, MaxMem=  536870912 cpu:       0.3
 (Enter /opt/gridunesp/dist/gaussian/g09/l401.exe)
 Initial guess read from the read-write file.
 B after Tr=     0.000000    0.000000    0.000000
         Rot=    1.000000    0.000000    0.000000    0.000000 Ang=   0.00 deg.
 Guess basis will be translated and rotated to current coordinates.
 Initial guess orbital symmetries:
       Occupied  (SG) (SG) (?A) (?B) (?A) (?B) (?B)
       Virtual   (?A) (?A) (?B) (?A) (?B) (?A) (?B) (?B) (?A) (?A)
                 (?B) (?A) (?A) (?B) (?B) (?B) (?B) (?A) (?A) (?A)
                 (?A) (?B) (?B) (?A) (?B) (?B) (?B) (?A) (?A) (?A)
                 (?B) (?A) (?B)
 Leave Link  401 at Mon Mar 14 13:30:30 2022, MaxMem=  536870912 cpu:       0.5
 (Enter /opt/gridunesp/dist/gaussian/g09/l502.exe)
 Closed shell SCF:
 Requested convergence on RMS density matrix=1.00D-08 within 128 cycles.
 Requested convergence on MAX density matrix=1.00D-06.
 Requested convergence on             energy=1.00D-06.
 No special actions if energy rises.
 Using DIIS extrapolation, IDIIS=  1040.
 Integral symmetry usage will be decided dynamically.
        32692 words used for storage of precomputed grid.
 Keep R1 ints in memory in canonical form, NReq=3571607.
 IEnd=       56302 IEndB=       56302 NGot=   536870912 MDV=   536496253
 LenX=   536496253 LenY=   536494212
 Symmetry not used in FoFDir.
 MinBra= 0 MaxBra= 2 Meth= 1.
 IRaf=       0 NMat=   1 IRICut=       1 DoRegI=T DoRafI=F ISym2E= 0 JSym2E=0.
 An orbital has undefined symmetry, so N**3 symmetry is turned off.

 Cycle   1  Pass 1  IDiag  1:
 Density matrix breaks symmetry, PCut= 1.00D-04
 Density has only Abelian symmetry.
 E= -74.6555674863140    
 DIIS: error= 2.83D-01 at cycle   1 NSaved=   1.
 NSaved= 1 IEnMin= 1 EnMin= -74.6555674863140     IErMin= 1 ErrMin= 2.83D-01
 ErrMax= 2.83D-01 EMaxC= 1.00D-01 BMatC= 8.41D-01 BMatP= 8.41D-01
 IDIUse=3 WtCom= 0.00D+00 WtEn= 1.00D+00
 Coeff-Com:  0.100D+01
 Coeff-En:   0.100D+01
 Coeff:      0.100D+01
 Gap=     0.103 Goal=   None    Shift=    0.000
 GapD=    0.103 DampG=1.000 DampE=0.250 DampFc=0.2500 IDamp=-1.
 Damping current iteration by 2.50D-01
 RMSDP=7.91D-02 MaxDP=8.50D-01              OVMax= 7.94D-01

 Cycle   2  Pass 1  IDiag  1:
 Density matrix breaks symmetry, PCut= 1.00D-04
 Density has only Abelian symmetry.
 E= -75.2936932328349     Delta-E=       -0.638125746521 Rises=F Damp=T
 DIIS: error= 2.15D-01 at cycle   2 NSaved=   2.
 NSaved= 2 IEnMin= 2 EnMin= -75.2936932328349     IErMin= 2 ErrMin= 2.15D-01
 ErrMax= 2.15D-01 EMaxC= 1.00D-01 BMatC= 4.75D-01 BMatP= 8.41D-01
 IDIUse=3 WtCom= 0.00D+00 WtEn= 1.00D+00
 Coeff-Com: -0.285D+01 0.385D+01
 Coeff-En:   0.000D+00 0.100D+01
 Coeff:      0.000D+00 0.100D+01
 Gap=     0.295 Goal=   None    Shift=    0.000
 RMSDP=5.96D-02 MaxDP=6.47D-01 DE=-6.38D-01 OVMax= 3.53D-02

 Cycle   3  Pass 1  IDiag  1:
 Density matrix breaks symmetry, PCut= 1.00D-04
 Density has only Abelian symmetry.
 E= -77.3179311261338     Delta-E=       -2.024237893299 Rises=F Damp=F
 DIIS: error= 2.22D-02 at cycle   3 NSaved=   3.
 NSaved= 3 IEnMin= 3 EnMin= -77.3179311261338     IErMin= 3 ErrMin= 2.22D-02
 ErrMax= 2.22D-02 EMaxC= 1.00D-01 BMatC= 1.53D-02 BMatP= 4.75D-01
 IDIUse=3 WtCom= 7.78D-01 WtEn= 2.22D-01
 Coeff-Com:  0.116D+01-0.154D+01 0.139D+01
 Coeff-En:   0.000D+00 0.000D+00 0.100D+01
 Coeff:      0.899D+00-0.120D+01 0.130D+01
 Gap=     0.334 Goal=   None    Shift=    0.000
 RMSDP=3.77D-03 MaxDP=3.02D-02 DE=-2.02D+00 OVMax= 6.43D-02

 Cycle   4  Pass 1  IDiag  1:
 Density matrix breaks symmetry, PCut= 1.00D-04
 Density has only Abelian symmetry.
 E= -77.3312291915885     Delta-E=       -0.013298065455 Rises=F Damp=F
 DIIS: error= 8.07D-03 at cycle   4 NSaved=   4.
 NSaved= 4 IEnMin= 4 EnMin= -77.3312291915885     IErMin= 4 ErrMin= 8.07D-03
 ErrMax= 8.07D-03 EMaxC= 1.00D-01 BMatC= 1.53D-03 BMatP= 1.53D-02
 IDIUse=3 WtCom= 9.19D-01 WtEn= 8.07D-02
 Coeff-Com: -0.136D+00 0.172D+00 0.172D+00 0.792D+00
 Coeff-En:   0.000D+00 0.000D+00 0.000D+00 0.100D+01
 Coeff:     -0.125D+00 0.158D+00 0.159D+00 0.809D+00
 Gap=     0.334 Goal=   None    Shift=    0.000
 RMSDP=1.06D-03 MaxDP=9.93D-03 DE=-1.33D-02 OVMax= 1.38D-02

 Cycle   5  Pass 1  IDiag  1:
 Density matrix breaks symmetry, PCut= 1.00D-04
 Density has only Abelian symmetry.
 E= -77.3328152909670     Delta-E=       -0.001586099378 Rises=F Damp=F
 DIIS: error= 1.63D-03 at cycle   5 NSaved=   5.
 NSaved= 5 IEnMin= 5 EnMin= -77.3328152909670     IErMin= 5 ErrMin= 1.63D-03
 ErrMax= 1.63D-03 EMaxC= 1.00D-01 BMatC= 6.77D-05 BMatP= 1.53D-03
 IDIUse=3 WtCom= 9.84D-01 WtEn= 1.63D-02
 Coeff-Com:  0.105D-01-0.174D-01 0.500D-01 0.240D+00 0.717D+00
 Coeff-En:   0.000D+00 0.000D+00 0.000D+00 0.000D+00 0.100D+01
 Coeff:      0.103D-01-0.171D-01 0.492D-01 0.236D+00 0.721D+00
 Gap=     0.334 Goal=   None    Shift=    0.000
 RMSDP=2.07D-04 MaxDP=1.55D-03 DE=-1.59D-03 OVMax= 3.15D-03

 Cycle   6  Pass 1  IDiag  1:
 Density matrix breaks symmetry, PCut= 1.00D-04
 Density has only Abelian symmetry.
 E= -77.3328881952481     Delta-E=       -0.000072904281 Rises=F Damp=F
 DIIS: error= 1.50D-04 at cycle   6 NSaved=   6.
 NSaved= 6 IEnMin= 6 EnMin= -77.3328881952481     IErMin= 6 ErrMin= 1.50D-04
 ErrMax= 1.50D-04 EMaxC= 1.00D-01 BMatC= 7.31D-07 BMatP= 6.77D-05
 IDIUse=3 WtCom= 9.98D-01 WtEn= 1.50D-03
 Coeff-Com: -0.142D-02 0.188D-02-0.248D-02-0.580D-02 0.789D-01 0.929D+00
 Coeff-En:   0.000D+00 0.000D+00 0.000D+00 0.000D+00 0.000D+00 0.100D+01
 Coeff:     -0.141D-02 0.188D-02-0.248D-02-0.579D-02 0.787D-01 0.929D+00
 Gap=     0.334 Goal=   None    Shift=    0.000
 RMSDP=2.52D-05 MaxDP=2.08D-04 DE=-7.29D-05 OVMax= 3.84D-04

 Cycle   7  Pass 1  IDiag  1:
 E= -77.3328890886869     Delta-E=       -0.000000893439 Rises=F Damp=F
 DIIS: error= 1.39D-05 at cycle   7 NSaved=   7.
 NSaved= 7 IEnMin= 7 EnMin= -77.3328890886869     IErMin= 7 ErrMin= 1.39D-05
 ErrMax= 1.39D-05 EMaxC= 1.00D-01 BMatC= 3.39D-09 BMatP= 7.31D-07
 IDIUse=1 WtCom= 1.00D+00 WtEn= 0.00D+00
 Coeff-Com: -0.252D-03 0.352D-03-0.316D-03-0.201D-02 0.266D-02 0.455D-01
 Coeff-Com:  0.954D+00
 Coeff:     -0.252D-03 0.352D-03-0.316D-03-0.201D-02 0.266D-02 0.455D-01
 Coeff:      0.954D+00
 Gap=     0.334 Goal=   None    Shift=    0.000
 RMSDP=2.64D-06 MaxDP=1.84D-05 DE=-8.93D-07 OVMax= 5.13D-05

 Cycle   8  Pass 1  IDiag  1:
 E= -77.3328890575875     Delta-E=        0.000000031099 Rises=F Damp=F
 DIIS: error= 1.67D-06 at cycle   8 NSaved=   8.
 NSaved= 8 IEnMin= 7 EnMin= -77.3328890886869     IErMin= 8 ErrMin= 1.67D-06
 ErrMax= 1.67D-06 EMaxC= 1.00D-01 BMatC= 5.42D-11 BMatP= 3.39D-09
 IDIUse=1 WtCom= 1.00D+00 WtEn= 0.00D+00
 Coeff-Com: -0.244D-04 0.341D-04-0.346D-04-0.221D-03 0.390D-03 0.298D-02
 Coeff-Com:  0.122D+00 0.875D+00
 Coeff:     -0.244D-04 0.341D-04-0.346D-04-0.221D-03 0.390D-03 0.298D-02
 Coeff:      0.122D+00 0.875D+00
 Gap=     0.334 Goal=   None    Shift=    0.000
 RMSDP=2.90D-07 MaxDP=3.54D-06 DE= 3.11D-08 OVMax= 5.26D-06

 Cycle   9  Pass 1  IDiag  1:
 E= -77.3328890560035     Delta-E=        0.000000001584 Rises=F Damp=F
 DIIS: error= 1.32D-06 at cycle   9 NSaved=   9.
 NSaved= 9 IEnMin= 7 EnMin= -77.3328890886869     IErMin= 9 ErrMin= 1.32D-06
 ErrMax= 1.32D-06 EMaxC= 1.00D-01 BMatC= 5.61D-11 BMatP= 5.42D-11
 IDIUse=1 WtCom= 1.00D+00 WtEn= 0.00D+00
 Coeff-Com: -0.578D-05 0.808D-05-0.968D-05-0.612D-04 0.132D-03 0.131D-03
 Coeff-Com:  0.386D-01 0.512D+00 0.449D+00
 Coeff:     -0.578D-05 0.808D-05-0.968D-05-0.612D-04 0.132D-03 0.131D-03
 Coeff:      0.386D-01 0.512D+00 0.449D+00
 Gap=     0.334 Goal=   None    Shift=    0.000
 RMSDP=1.84D-07 MaxDP=2.18D-06 DE= 1.58D-09 OVMax= 4.37D-06

 Cycle  10  Pass 1  IDiag  1:
 E= -77.3328890559567     Delta-E=        0.000000000047 Rises=F Damp=F
 DIIS: error= 5.18D-07 at cycle  10 NSaved=  10.
 NSaved=10 IEnMin= 7 EnMin= -77.3328890886869     IErMin=10 ErrMin= 5.18D-07
 ErrMax= 5.18D-07 EMaxC= 1.00D-01 BMatC= 8.10D-12 BMatP= 5.42D-11
 IDIUse=1 WtCom= 1.00D+00 WtEn= 0.00D+00
 Coeff-Com: -0.806D-08 0.121D-07 0.178D-06 0.255D-05-0.293D-04-0.749D-04
 Coeff-Com: -0.288D-02-0.483D-01 0.268D+00 0.783D+00
 Coeff:     -0.806D-08 0.121D-07 0.178D-06 0.255D-05-0.293D-04-0.749D-04
 Coeff:     -0.288D-02-0.483D-01 0.268D+00 0.783D+00
 Gap=     0.334 Goal=   None    Shift=    0.000
 RMSDP=5.15D-08 MaxDP=7.07D-07 DE= 4.67D-11 OVMax= 1.30D-06

 Cycle  11  Pass 1  IDiag  1:
 E= -77.3328890559715     Delta-E=       -0.000000000015 Rises=F Damp=F
 DIIS: error= 8.30D-09 at cycle  11 NSaved=  11.
 NSaved=11 IEnMin= 7 EnMin= -77.3328890886869     IErMin=11 ErrMin= 8.30D-09
 ErrMax= 8.30D-09 EMaxC= 1.00D-01 BMatC= 1.24D-15 BMatP= 8.10D-12
 IDIUse=1 WtCom= 1.00D+00 WtEn= 0.00D+00
 Coeff-Com:  0.586D-07-0.783D-07 0.103D-07-0.222D-07-0.398D-06-0.119D-04
 Coeff-Com: -0.935D-04 0.136D-02-0.625D-03 0.211D-02 0.997D+00
 Coeff:      0.586D-07-0.783D-07 0.103D-07-0.222D-07-0.398D-06-0.119D-04
 Coeff:     -0.935D-04 0.136D-02-0.625D-03 0.211D-02 0.997D+00
 Gap=     0.334 Goal=   None    Shift=    0.000
 RMSDP=1.73D-09 MaxDP=2.08D-08 DE=-1.47D-11 OVMax= 4.56D-08

 Error on total polarization charges =  0.00450
 SCF Done:  E(RB3LYP) =  -77.3328890560     A.U. after   11 cycles
             Convg  =    0.1726D-08             -V/T =  2.0103
 KE= 7.654535386985D+01 PE=-2.284263626532D+02 EE= 4.986282632680D+01
 Leave Link  502 at Mon Mar 14 13:30:32 2022, MaxMem=  536870912 cpu:      13.1
 (Enter /opt/gridunesp/dist/gaussian/g09/l701.exe)
 Compute integral first derivatives.
 ... and contract with generalized density number  0.
 D1PCM: PCM CHGder 1st derivatives, ID1Alg=3 FixD1E=F DoIter=F DoCFld=F I1PDM=0.
 GePol: Maximum number of non-zero 1st derivatives   =     240
 Leave Link  701 at Mon Mar 14 13:30:33 2022, MaxMem=  536870912 cpu:       3.3
 (Enter /opt/gridunesp/dist/gaussian/g09/l702.exe)
 L702 exits ... SP integral derivatives will be done elsewhere.
 Leave Link  702 at Mon Mar 14 13:30:33 2022, MaxMem=  536870912 cpu:       0.1
 (Enter /opt/gridunesp/dist/gaussian/g09/l703.exe)
 Compute integral first derivatives, UseDBF=F ICtDFT=           0.
 Integral derivatives from FoFDir, PRISM(SPDF).
 Calling FoFJK, ICntrl=      2127 FMM=F ISym2X=1 I1Cent= 0 IOpClX= 0 NMat=1 NMatS=1 NMatT=0.
 FoFCou: FMM=F IPFlag=           0 FMFlag=      100000 FMFlg1=         800
         NFxFlg=           0 DoJE=F BraDBF=F KetDBF=F FulRan=T
         Omega=  0.000000  0.000000  1.000000  0.000000  0.000000 ICntrl=    2127 IOpCl=  0
         NMat0=    1 NMatS0=    1 NMatT0=    0 NMatD0=    1 NMtDS0=    0 NMtDT0=    0
         I1Cent=           0 NGrid=           0.
 Petite list used in FoFCou.
 Leave Link  703 at Mon Mar 14 13:30:33 2022, MaxMem=  536870912 cpu:       2.3
 (Enter /opt/gridunesp/dist/gaussian/g09/l716.exe)
 Dipole        = 2.86351065D-18-4.58160613D-17 7.45042459D-08
 ***** Axes restored to original set *****
 -------------------------------------------------------------------
 Center     Atomic                   Forces (Hartrees/Bohr)
 Number     Number              X              Y              Z
 -------------------------------------------------------------------
      1        6           0.000000242   -0.000019494   -0.000010859
      2        1          -0.000000001    0.000000070    0.000000039
      3        6          -0.000000242    0.000019489    0.000010856
      4        1           0.000000001   -0.000000064   -0.000000036
 -------------------------------------------------------------------
 Cartesian Forces:  Max     0.000019494 RMS     0.000009109
 Leave Link  716 at Mon Mar 14 13:30:33 2022, MaxMem=  536870912 cpu:       0.2
 (Enter /opt/gridunesp/dist/gaussian/g09/l103.exe)

 GradGradGradGradGradGradGradGradGradGradGradGradGradGradGradGradGradGrad
 Berny optimization.
 Using GEDIIS/GDIIS optimizer.
 NTrRot=    -1 NTRed=     6 NAtoms=     4 NSkip=    -1 IsLin=T
 Problem with coordinate system.
 Error termination via Lnk1e in /opt/gridunesp/dist/gaussian/g09/l103.exe at Mon Mar 14 13:30:33 2022.
 Job cpu time:  0 days  0 hours  3 minutes 13.1 seconds.
 File lengths (MBytes):  RWF=     79 Int=      0 D2E=      0 Chk=      3 Scr=      2
