 Entering Gaussian System, Link 0=g09
 Input=pda-2_opt_g09.com
 Output=pda-2_opt_g09.log
 Initial command:
 /opt/gridunesp/dist/gaussian/g09/l1.exe /store/rheinheimer/2838056/Gau-10422.inp -scrdir=/store/rheinheimer/2838056/
 Entering Link 1 = /opt/gridunesp/dist/gaussian/g09/l1.exe PID=     10424.
  
 Copyright (c) 1988,1990,1992,1993,1995,1998,2003,2009, Gaussian, Inc.
                  All Rights Reserved.
  
 This is part of the Gaussian(R) 09 program.  It is based on
 the Gaussian(R) 03 system (copyright 2003, Gaussian, Inc.),
 the Gaussian(R) 98 system (copyright 1998, Gaussian, Inc.),
 the Gaussian(R) 94 system (copyright 1995, Gaussian, Inc.),
 the Gaussian 92(TM) system (copyright 1992, Gaussian, Inc.),
 the Gaussian 90(TM) system (copyright 1990, Gaussian, Inc.),
 the Gaussian 88(TM) system (copyright 1988, Gaussian, Inc.),
 the Gaussian 86(TM) system (copyright 1986, Carnegie Mellon
 University), and the Gaussian 82(TM) system (copyright 1983,
 Carnegie Mellon University). Gaussian is a federally registered
 trademark of Gaussian, Inc.
  
 This software contains proprietary and confidential information,
 including trade secrets, belonging to Gaussian, Inc.
  
 This software is provided under written license and may be
 used, copied, transmitted, or stored only in accord with that
 written license.
  
 The following legend is applicable only to US Government
 contracts under FAR:
  
                    RESTRICTED RIGHTS LEGEND
  
 Use, reproduction and disclosure by the US Government is
 subject to restrictions as set forth in subparagraphs (a)
 and (c) of the Commercial Computer Software - Restricted
 Rights clause in FAR 52.227-19.
  
 Gaussian, Inc.
 340 Quinnipiac St., Bldg. 40, Wallingford CT 06492
  
  
 ---------------------------------------------------------------
 Warning -- This program may not be used in any manner that
 competes with the business of Gaussian, Inc. or will provide
 assistance to any competitor of Gaussian, Inc.  The licensee
 of this program is prohibited from giving any competitor of
 Gaussian, Inc. access to this program.  By using this program,
 the user acknowledges that Gaussian, Inc. is engaged in the
 business of creating and licensing software in the field of
 computational chemistry and represents and warrants to the
 licensee that it is not a competitor of Gaussian, Inc. and that
 it will not use this program in any manner prohibited above.
 ---------------------------------------------------------------
  

 Cite this work as:
 Gaussian 09, Revision A.02,
 M. J. Frisch, G. W. Trucks, H. B. Schlegel, G. E. Scuseria, 
 M. A. Robb, J. R. Cheeseman, G. Scalmani, V. Barone, B. Mennucci, 
 G. A. Petersson, H. Nakatsuji, M. Caricato, X. Li, H. P. Hratchian, 
 A. F. Izmaylov, J. Bloino, G. Zheng, J. L. Sonnenberg, M. Hada, 
 M. Ehara, K. Toyota, R. Fukuda, J. Hasegawa, M. Ishida, T. Nakajima, 
 Y. Honda, O. Kitao, H. Nakai, T. Vreven, J. A. Montgomery, Jr., 
 J. E. Peralta, F. Ogliaro, M. Bearpark, J. J. Heyd, E. Brothers, 
 K. N. Kudin, V. N. Staroverov, R. Kobayashi, J. Normand, 
 K. Raghavachari, A. Rendell, J. C. Burant, S. S. Iyengar, J. Tomasi, 
 M. Cossi, N. Rega, J. M. Millam, M. Klene, J. E. Knox, J. B. Cross, 
 V. Bakken, C. Adamo, J. Jaramillo, R. Gomperts, R. E. Stratmann, 
 O. Yazyev, A. J. Austin, R. Cammi, C. Pomelli, J. W. Ochterski, 
 R. L. Martin, K. Morokuma, V. G. Zakrzewski, G. A. Voth, 
 P. Salvador, J. J. Dannenberg, S. Dapprich, A. D. Daniels, 
 O. Farkas, J. B. Foresman, J. V. Ortiz, J. Cioslowski, 
 and D. J. Fox, Gaussian, Inc., Wallingford CT, 2009.
 
 ******************************************
 Gaussian 09:  EM64L-G09RevA.02 11-Jun-2009
                14-Mar-2022 
 ******************************************
 %nproc=8
 Will use up to    8 processors via shared memory.
 %Mem=4GB
 ----------------------------------------------------------------------
 #P B3LYP/6-31G(d,p) # Opt=tight SCRF=(Solvent=Water) # Gfinput IOP(6/7
 =3) Pop=full Density Test # Units(Ang,Deg)
 ----------------------------------------------------------------------
 1/7=10,14=-1,18=20,19=15,26=3,38=1/1,3;
 2/9=110,12=2,17=6,18=5,40=1/2;
 3/5=1,6=6,7=101,11=2,16=1,24=10,25=1,30=1,70=2201,71=1,72=1,74=-5/1,2,3;
 4//1;
 5/5=2,38=5,53=1/2;
 6/7=3,22=-1,28=1/1;
 7//1,2,3,16;
 1/7=10,14=-1,18=20,19=15/3(2);
 2/9=110/2;
 99//99;
 2/9=110/2;
 3/5=1,6=6,7=101,11=2,16=1,25=1,30=1,70=2205,71=1,72=1,74=-5/1,2,3;
 4/5=5,16=3/1;
 5/5=2,38=5,53=1/2;
 7//1,2,3,16;
 1/7=10,14=-1,18=20,19=15/3(-5);
 2/9=110/2;
 6/7=3,19=2,22=-1,28=1/1;
 99/9=1/99;
 Leave Link    1 at Mon Mar 14 13:30:33 2022, MaxMem=  536870912 cpu:       0.4
 (Enter /opt/gridunesp/dist/gaussian/g09/l101.exe)
 -------------------
 Title Card Required
 -------------------
 Symbolic Z-matrix:
 Charge =  0 Multiplicity = 1
 C                    -3.0994    0.49327   0.04898 
 C                    -2.58836   1.21841   1.30779 
 H                    -2.945     2.22723   1.30778 
 C                    -2.58608  -0.95866   0.04898 
 H                    -1.51608  -0.95867   0.05093 
 C                    -3.09712  -1.6838   -1.20983 
 H                    -2.73885  -1.17884  -2.08251 
 C                    -2.58381  -3.13574  -1.20983 
 C                    -3.09485  -3.86088  -2.46865 
 H                    -2.7382   -4.86969  -2.46865 
 
 NAtoms=     10 NQM=     10 NQMF=      0 NMic=      0 NMicF=      0 NTot=     10.
                    Isotopes and Nuclear Properties:
 (Nuclear quadrupole moments (NQMom) in fm**2, nuclear magnetic moments (NMagM)
  in nuclear magnetons)

  Atom         1           2           3           4           5           6           7           8           9          10
 IAtWgt=          12          12           1          12           1          12           1          12          12           1
 AtmWgt=  12.0000000  12.0000000   1.0078250  12.0000000   1.0078250  12.0000000   1.0078250  12.0000000  12.0000000   1.0078250
 NucSpn=           0           0           1           0           1           0           1           0           0           1
 AtZEff=   0.0000000   0.0000000   0.0000000   0.0000000   0.0000000   0.0000000   0.0000000   0.0000000   0.0000000   0.0000000
 NQMom=    0.0000000   0.0000000   0.0000000   0.0000000   0.0000000   0.0000000   0.0000000   0.0000000   0.0000000   0.0000000
 NMagM=    0.0000000   0.0000000   2.7928460   0.0000000   2.7928460   0.0000000   2.7928460   0.0000000   0.0000000   2.7928460
 Leave Link  101 at Mon Mar 14 13:30:34 2022, MaxMem=  536870912 cpu:       0.4
 (Enter /opt/gridunesp/dist/gaussian/g09/l103.exe)

 GradGradGradGradGradGradGradGradGradGradGradGradGradGradGradGradGradGrad
 Berny optimization.
 Initialization pass.
                           ----------------------------
                           !    Initial Parameters    !
                           ! (Angstroms and Degrees)  !
 --------------------------                            --------------------------
 ! Name  Definition              Value          Derivative Info.                !
 --------------------------------------------------------------------------------
 ! R1    R(1,2)                  1.54           estimate D2E/DX2                !
 ! R2    R(1,4)                  1.54           estimate D2E/DX2                !
 ! R3    R(2,3)                  1.07           estimate D2E/DX2                !
 ! R4    R(4,5)                  1.07           estimate D2E/DX2                !
 ! R5    R(4,6)                  1.54           estimate D2E/DX2                !
 ! R6    R(6,7)                  1.07           estimate D2E/DX2                !
 ! R7    R(6,8)                  1.54           estimate D2E/DX2                !
 ! R8    R(8,9)                  1.54           estimate D2E/DX2                !
 ! R9    R(9,10)                 1.07           estimate D2E/DX2                !
 ! A1    A(2,1,4)              109.4712         estimate D2E/DX2                !
 ! A2    A(1,2,3)              109.4712         estimate D2E/DX2                !
 ! A3    A(1,4,5)              109.4712         estimate D2E/DX2                !
 ! A4    A(1,4,6)              109.4712         estimate D2E/DX2                !
 ! A5    A(5,4,6)              109.4712         estimate D2E/DX2                !
 ! A6    A(4,6,7)              109.4712         estimate D2E/DX2                !
 ! A7    A(4,6,8)              109.4712         estimate D2E/DX2                !
 ! A8    A(7,6,8)              109.4713         estimate D2E/DX2                !
 ! A9    A(6,8,9)              109.4712         estimate D2E/DX2                !
 ! A10   A(8,9,10)             109.4712         estimate D2E/DX2                !
 ! D1    D(4,1,2,3)            179.9989         estimate D2E/DX2                !
 ! D2    D(2,1,4,5)            -59.9999         estimate D2E/DX2                !
 ! D3    D(2,1,4,6)           -179.9999         estimate D2E/DX2                !
 ! D4    D(1,4,6,7)             60.0001         estimate D2E/DX2                !
 ! D5    D(1,4,6,8)           -179.9999         estimate D2E/DX2                !
 ! D6    D(5,4,6,7)            -59.9999         estimate D2E/DX2                !
 ! D7    D(5,4,6,8)             60.0001         estimate D2E/DX2                !
 ! D8    D(4,6,8,9)           -179.9998         estimate D2E/DX2                !
 ! D9    D(7,6,8,9)            -59.9998         estimate D2E/DX2                !
 ! D10   D(6,8,9,10)          -179.9999         estimate D2E/DX2                !
 --------------------------------------------------------------------------------
 Trust Radius=3.00D-01 FncErr=1.00D-07 GrdErr=1.00D-06
 Number of steps in this run=  39 maximum allowed number of steps= 100.
 GradGradGradGradGradGradGradGradGradGradGradGradGradGradGradGradGradGrad

 Leave Link  103 at Mon Mar 14 13:30:34 2022, MaxMem=  536870912 cpu:       0.1
 (Enter /opt/gridunesp/dist/gaussian/g09/l202.exe)
                          Input orientation:                          
 ---------------------------------------------------------------------
 Center     Atomic      Atomic             Coordinates (Angstroms)
 Number     Number       Type             X           Y           Z
 ---------------------------------------------------------------------
      1          6           0       -3.099399    0.493272    0.048976
      2          6           0       -2.588357    1.218415    1.307786
      3          1           0       -2.944995    2.227230    1.307777
      4          6           0       -2.586083   -0.958661    0.048976
      5          1           0       -1.516085   -0.958674    0.050933
      6          6           0       -3.097124   -1.683803   -1.209835
      7          1           0       -2.738853   -1.178840   -2.082506
      8          6           0       -2.583810   -3.135736   -1.209834
      9          6           0       -3.094846   -3.860876   -2.468648
     10          1           0       -2.738195   -4.869687   -2.468647
 ---------------------------------------------------------------------
                    Distance matrix (angstroms):
                    1          2          3          4          5
     1  C    0.000000
     2  C    1.540000   0.000000
     3  H    2.148263   1.070000   0.000000
     4  C    1.540000   2.514809   3.444314   0.000000
     5  H    2.148263   2.732977   3.710988   1.070000   0.000000
     6  C    2.514809   3.875581   4.653783   1.540000   2.148263
     7  H    2.732977   4.154944   4.810179   2.148263   2.468845
     8  C    3.875581   5.029618   5.935506   2.514809   2.732978
     9  C    5.029618   6.349582   7.165813   3.875581   4.154943
    10  H    5.935505   7.165814   8.041790   4.653783   4.810183
                    6          7          8          9         10
     6  C    0.000000
     7  H    1.070000   0.000000
     8  C    1.540000   2.148263   0.000000
     9  C    2.514809   2.732975   1.540000   0.000000
    10  H    3.444313   3.710991   2.148263   1.070000   0.000000
 Stoichiometry    C6H4
 Framework group  C1[X(C6H4)]
 Deg. of freedom    24
 Full point group                 C1      NOp   1
 Largest Abelian subgroup         C1      NOp   1
 Largest concise Abelian subgroup C1      NOp   1
                         Standard orientation:                         
 ---------------------------------------------------------------------
 Center     Atomic      Atomic             Coordinates (Angstroms)
 Number     Number       Type             X           Y           Z
 ---------------------------------------------------------------------
      1          6           0       -1.860143    0.543047   -0.043685
      2          6           0       -3.162528   -0.278776   -0.043682
      3          1           0       -4.002513    0.384040   -0.043665
      4          6           0       -0.651192   -0.410912   -0.043683
      5          1           0       -0.683652   -1.027821    0.829970
      6          6           0        0.651192    0.410912   -0.043685
      7          1           0        0.683652    1.027824    0.829966
      8          6           0        1.860143   -0.543048   -0.043684
      9          6           0        3.162527    0.278777   -0.043679
     10          1           0        4.002513   -0.384039   -0.043681
 ---------------------------------------------------------------------
 Rotational constants (GHZ):     29.8833885      1.3733243      1.3232825
 Leave Link  202 at Mon Mar 14 13:30:34 2022, MaxMem=  536870912 cpu:       0.4
 (Enter /opt/gridunesp/dist/gaussian/g09/l301.exe)
 Standard basis: 6-31G(d,p) (6D, 7F)
 Ernie: Thresh=  0.10000D-02 Tol=  0.10000D-05 Strict=F.
 AO basis set in the form of general basis input (Overlap normalization):
      1 0
 S   6 1.00       0.000000000000
      0.3047524880D+04  0.1834737132D-02
      0.4573695180D+03  0.1403732281D-01
      0.1039486850D+03  0.6884262226D-01
      0.2921015530D+02  0.2321844432D+00
      0.9286662960D+01  0.4679413484D+00
      0.3163926960D+01  0.3623119853D+00
 SP   3 1.00       0.000000000000
      0.7868272350D+01 -0.1193324198D+00  0.6899906659D-01
      0.1881288540D+01 -0.1608541517D+00  0.3164239610D+00
      0.5442492580D+00  0.1143456438D+01  0.7443082909D+00
 SP   1 1.00       0.000000000000
      0.1687144782D+00  0.1000000000D+01  0.1000000000D+01
 D   1 1.00       0.000000000000
      0.8000000000D+00  0.1000000000D+01
 ****
      2 0
 S   6 1.00       0.000000000000
      0.3047524880D+04  0.1834737132D-02
      0.4573695180D+03  0.1403732281D-01
      0.1039486850D+03  0.6884262226D-01
      0.2921015530D+02  0.2321844432D+00
      0.9286662960D+01  0.4679413484D+00
      0.3163926960D+01  0.3623119853D+00
 SP   3 1.00       0.000000000000
      0.7868272350D+01 -0.1193324198D+00  0.6899906659D-01
      0.1881288540D+01 -0.1608541517D+00  0.3164239610D+00
      0.5442492580D+00  0.1143456438D+01  0.7443082909D+00
 SP   1 1.00       0.000000000000
      0.1687144782D+00  0.1000000000D+01  0.1000000000D+01
 D   1 1.00       0.000000000000
      0.8000000000D+00  0.1000000000D+01
 ****
      3 0
 S   3 1.00       0.000000000000
      0.1873113696D+02  0.3349460434D-01
      0.2825394365D+01  0.2347269535D+00
      0.6401216923D+00  0.8137573261D+00
 S   1 1.00       0.000000000000
      0.1612777588D+00  0.1000000000D+01
 P   1 1.00       0.000000000000
      0.1100000000D+01  0.1000000000D+01
 ****
      4 0
 S   6 1.00       0.000000000000
      0.3047524880D+04  0.1834737132D-02
      0.4573695180D+03  0.1403732281D-01
      0.1039486850D+03  0.6884262226D-01
      0.2921015530D+02  0.2321844432D+00
      0.9286662960D+01  0.4679413484D+00
      0.3163926960D+01  0.3623119853D+00
 SP   3 1.00       0.000000000000
      0.7868272350D+01 -0.1193324198D+00  0.6899906659D-01
      0.1881288540D+01 -0.1608541517D+00  0.3164239610D+00
      0.5442492580D+00  0.1143456438D+01  0.7443082909D+00
 SP   1 1.00       0.000000000000
      0.1687144782D+00  0.1000000000D+01  0.1000000000D+01
 D   1 1.00       0.000000000000
      0.8000000000D+00  0.1000000000D+01
 ****
      5 0
 S   3 1.00       0.000000000000
      0.1873113696D+02  0.3349460434D-01
      0.2825394365D+01  0.2347269535D+00
      0.6401216923D+00  0.8137573261D+00
 S   1 1.00       0.000000000000
      0.1612777588D+00  0.1000000000D+01
 P   1 1.00       0.000000000000
      0.1100000000D+01  0.1000000000D+01
 ****
      6 0
 S   6 1.00       0.000000000000
      0.3047524880D+04  0.1834737132D-02
      0.4573695180D+03  0.1403732281D-01
      0.1039486850D+03  0.6884262226D-01
      0.2921015530D+02  0.2321844432D+00
      0.9286662960D+01  0.4679413484D+00
      0.3163926960D+01  0.3623119853D+00
 SP   3 1.00       0.000000000000
      0.7868272350D+01 -0.1193324198D+00  0.6899906659D-01
      0.1881288540D+01 -0.1608541517D+00  0.3164239610D+00
      0.5442492580D+00  0.1143456438D+01  0.7443082909D+00
 SP   1 1.00       0.000000000000
      0.1687144782D+00  0.1000000000D+01  0.1000000000D+01
 D   1 1.00       0.000000000000
      0.8000000000D+00  0.1000000000D+01
 ****
      7 0
 S   3 1.00       0.000000000000
      0.1873113696D+02  0.3349460434D-01
      0.2825394365D+01  0.2347269535D+00
      0.6401216923D+00  0.8137573261D+00
 S   1 1.00       0.000000000000
      0.1612777588D+00  0.1000000000D+01
 P   1 1.00       0.000000000000
      0.1100000000D+01  0.1000000000D+01
 ****
      8 0
 S   6 1.00       0.000000000000
      0.3047524880D+04  0.1834737132D-02
      0.4573695180D+03  0.1403732281D-01
      0.1039486850D+03  0.6884262226D-01
      0.2921015530D+02  0.2321844432D+00
      0.9286662960D+01  0.4679413484D+00
      0.3163926960D+01  0.3623119853D+00
 SP   3 1.00       0.000000000000
      0.7868272350D+01 -0.1193324198D+00  0.6899906659D-01
      0.1881288540D+01 -0.1608541517D+00  0.3164239610D+00
      0.5442492580D+00  0.1143456438D+01  0.7443082909D+00
 SP   1 1.00       0.000000000000
      0.1687144782D+00  0.1000000000D+01  0.1000000000D+01
 D   1 1.00       0.000000000000
      0.8000000000D+00  0.1000000000D+01
 ****
      9 0
 S   6 1.00       0.000000000000
      0.3047524880D+04  0.1834737132D-02
      0.4573695180D+03  0.1403732281D-01
      0.1039486850D+03  0.6884262226D-01
      0.2921015530D+02  0.2321844432D+00
      0.9286662960D+01  0.4679413484D+00
      0.3163926960D+01  0.3623119853D+00
 SP   3 1.00       0.000000000000
      0.7868272350D+01 -0.1193324198D+00  0.6899906659D-01
      0.1881288540D+01 -0.1608541517D+00  0.3164239610D+00
      0.5442492580D+00  0.1143456438D+01  0.7443082909D+00
 SP   1 1.00       0.000000000000
      0.1687144782D+00  0.1000000000D+01  0.1000000000D+01
 D   1 1.00       0.000000000000
      0.8000000000D+00  0.1000000000D+01
 ****
     10 0
 S   3 1.00       0.000000000000
      0.1873113696D+02  0.3349460434D-01
      0.2825394365D+01  0.2347269535D+00
      0.6401216923D+00  0.8137573261D+00
 S   1 1.00       0.000000000000
      0.1612777588D+00  0.1000000000D+01
 P   1 1.00       0.000000000000
      0.1100000000D+01  0.1000000000D+01
 ****

 There are   110 symmetry adapted basis functions of A   symmetry.
 Integral buffers will be    131072 words long.
 Raffenetti 2 integral format.
 Two-electron integral symmetry is turned on.
   110 basis functions,   196 primitive gaussians,   110 cartesian basis functions
    20 alpha electrons       20 beta electrons
       nuclear repulsion energy       150.3371260501 Hartrees.
 IExCor=  402 DFT=T Ex+Corr=B3LYP ExCW=0 ScaHFX=  0.200000
 ScaDFX=  0.800000  0.720000  1.000000  0.810000 ScalE2=  1.000000  1.000000
 IRadAn=      0 IRanWt=     -1 IRanGd=            0 ICorTp=0
 NAtoms=   10 NActive=   10 NUniq=   10 SFac= 7.50D-01 NAtFMM=   80 NAOKFM=F Big=F
 ------------------------------------------------------------------------------
 Polarizable Continuum Model (PCM)
 =================================
 Model                : PCM.
 Atomic radii         : UFF (Universal Force Field).
 Polarization charges : Total charges.
 Charge compensation  : None.
 Solution method      : Matrix inversion.
 Cavity type          : Scaled VdW (van der Waals Surface) (Alpha=1.100).
 Cavity algorithm     : GePol (No added spheres)
                        Default sphere list used, NSphG=   10.
                        Lebedev-Laikov grids with approx.  5.0 points / Ang**2.
                        Smoothing algorithm: Karplus/York (Gamma=1.0000).
                        Polarization charges: spherical gaussians, with
                                              point-specific exponents (IZeta= 3).
                        Self-potential: point-specific (ISelfS= 7).
                        Self-field    : sphere-specific E.n sum rule (ISelfD= 2).
 1st derivatives      : Analytical E(r).r(x)/FMM algorithm (CHGder, D1EAlg=3).
                        Cavity 1st derivative terms included.
 Solvent              : Water, Eps=  78.355300 Eps(inf)=   1.777849
 ------------------------------------------------------------------------------
 Spheres list:
 ISph  on   Nord    Re0     Alpha      Xe            Ye            Ze
    1   C      1    1.926   1.100     -1.860143      0.543047     -0.043685
    2   C      2    1.926   1.100     -3.162528     -0.278776     -0.043682
    3   H      3    1.443   1.100     -4.002513      0.384040     -0.043665
    4   C      4    1.926   1.100     -0.651192     -0.410912     -0.043683
    5   H      5    1.443   1.100     -0.683652     -1.027821      0.829970
    6   C      6    1.926   1.100      0.651192      0.410912     -0.043685
    7   H      7    1.443   1.100      0.683652      1.027824      0.829966
    8   C      8    1.926   1.100      1.860143     -0.543048     -0.043684
    9   C      9    1.926   1.100      3.162527      0.278777     -0.043679
   10   H     10    1.443   1.100      4.002513     -0.384039     -0.043681
 ------------------------------------------------------------------------------
 GePol: Number of generator spheres                  =      10
 GePol: Total number of spheres                      =      10
 GePol: Number of exposed spheres                    =      10 (100.00%)
 GePol: Number of points                             =    1090
 GePol: Average weight of points                     =       0.15
 GePol: Minimum weight of points                     =   0.29D-06
 GePol: Maximum weight of points                     =    0.20577
 GePol: Number of points with low weight             =      48
 GePol: Fraction of low-weight points (<1% of avg)   =       4.40%
 GePol: Cavity surface area                          =    164.973 Ang**2
 GePol: Cavity volume                                =    152.427 Ang**3
 Leave Link  301 at Mon Mar 14 13:30:34 2022, MaxMem=  536870912 cpu:       0.5
 (Enter /opt/gridunesp/dist/gaussian/g09/l302.exe)
 NPDir=0 NMtPBC=     1 NCelOv=     1 NCel=       1 NClECP=     1 NCelD=      1
         NCelK=      1 NCelE2=     1 NClLst=     1 CellRange=     0.0.
 One-electron integrals computed using PRISM.
 NBasis=   110 RedAO= T  NBF=   110
 NBsUse=   110 1.00D-06 NBFU=   110
 Precomputing XC quadrature grid using
 IXCGrd= 2 IRadAn=           0 IRanWt=          -1 IRanGd=           0 AccXCQ= 1.00D-10.
 NRdTot=     624 NPtTot=       79196 NUsed=       83707 NTot=       83739
 NSgBfM=   110   110   110   110   110 NAtAll=    10    10.
 Leave Link  302 at Mon Mar 14 13:30:34 2022, MaxMem=  536870912 cpu:       0.9
 (Enter /opt/gridunesp/dist/gaussian/g09/l303.exe)
 DipDrv:  MaxL=1.
 Leave Link  303 at Mon Mar 14 13:30:34 2022, MaxMem=  536870912 cpu:       0.4
 (Enter /opt/gridunesp/dist/gaussian/g09/l401.exe)
 Harris functional with IExCor=  402 diagonalized for initial guess.
 ExpMin= 1.61D-01 ExpMax= 3.05D+03 ExpMxC= 4.57D+02 IAcc=1 IRadAn=         1 AccDes= 0.00D+00
 HarFok:  IExCor=  402 AccDes= 0.00D+00 IRadAn=         1 IDoV= 1
 ScaDFX=  1.000000  1.000000  1.000000  1.000000
 FoFCou: FMM=F IPFlag=           0 FMFlag=      100000 FMFlg1=           0
         NFxFlg=           0 DoJE=T BraDBF=F KetDBF=T FulRan=T
         Omega=  0.000000  0.000000  1.000000  0.000000  0.000000 ICntrl=     500 IOpCl=  0
         NMat0=    1 NMatS0=    1 NMatT0=    0 NMatD0=    1 NMtDS0=    0 NMtDT0=    0
         I1Cent=           4 NGrid=           0.
 Petite list used in FoFCou.
 Harris En= -230.494413299033    
 Initial guess orbital symmetries:
       Occupied  (A) (A) (A) (A) (A) (A) (A) (A) (A) (A) (A) (A)
                 (A) (A) (A) (A) (A) (A) (A) (A)
       Virtual   (A) (A) (A) (A) (A) (A) (A) (A) (A) (A) (A) (A)
                 (A) (A) (A) (A) (A) (A) (A) (A) (A) (A) (A) (A)
                 (A) (A) (A) (A) (A) (A) (A) (A) (A) (A) (A) (A)
                 (A) (A) (A) (A) (A) (A) (A) (A) (A) (A) (A) (A)
                 (A) (A) (A) (A) (A) (A) (A) (A) (A) (A) (A) (A)
                 (A) (A) (A) (A) (A) (A) (A) (A) (A) (A) (A) (A)
                 (A) (A) (A) (A) (A) (A) (A) (A) (A) (A) (A) (A)
                 (A) (A) (A) (A) (A) (A)
 The electronic state of the initial guess is 1-A.
 Leave Link  401 at Mon Mar 14 13:30:35 2022, MaxMem=  536870912 cpu:       2.0
 (Enter /opt/gridunesp/dist/gaussian/g09/l502.exe)
 Closed shell SCF:
 Requested convergence on RMS density matrix=1.00D-08 within 128 cycles.
 Requested convergence on MAX density matrix=1.00D-06.
 Requested convergence on             energy=1.00D-06.
 No special actions if energy rises.
 Using DIIS extrapolation, IDIIS=  1040.
 Integral symmetry usage will be decided dynamically.
        83604 words used for storage of precomputed grid.
 Keep R1 ints in memory in canonical form, NReq=23077324.
 IEnd=      139756 IEndB=      139756 NGot=   536870912 MDV=   518121414
 LenX=   518121414 LenY=   518108873
 Symmetry not used in FoFDir.
 MinBra= 0 MaxBra= 2 Meth= 1.
 IRaf=       0 NMat=   1 IRICut=       1 DoRegI=T DoRafI=F ISym2E= 0 JSym2E=0.

 Cycle   1  Pass 1  IDiag  1:
 E= -230.400257464252    
 DIIS: error= 1.85D-02 at cycle   1 NSaved=   1.
 NSaved= 1 IEnMin= 1 EnMin= -230.400257464252     IErMin= 1 ErrMin= 1.85D-02
 ErrMax= 1.85D-02 EMaxC= 1.00D-01 BMatC= 6.53D-02 BMatP= 6.53D-02
 IDIUse=3 WtCom= 8.15D-01 WtEn= 1.85D-01
 Coeff-Com:  0.100D+01
 Coeff-En:   0.100D+01
 Coeff:      0.100D+01
 Gap=     0.038 Goal=   None    Shift=    0.000
 GapD=    0.038 DampG=0.250 DampE=0.500 DampFc=0.2500 IDamp=-1.
 Damping current iteration by 2.50D-01
 RMSDP=5.27D-03 MaxDP=8.20D-02              OVMax= 2.17D-01

 Cycle   2  Pass 1  IDiag  1:
 E= -230.425094671827     Delta-E=       -0.024837207574 Rises=F Damp=T
 DIIS: error= 1.17D-02 at cycle   2 NSaved=   2.
 NSaved= 2 IEnMin= 2 EnMin= -230.425094671827     IErMin= 2 ErrMin= 1.17D-02
 ErrMax= 1.17D-02 EMaxC= 1.00D-01 BMatC= 1.89D-02 BMatP= 6.53D-02
 IDIUse=3 WtCom= 8.83D-01 WtEn= 1.17D-01
 Coeff-Com: -0.550D+00 0.155D+01
 Coeff-En:   0.000D+00 0.100D+01
 Coeff:     -0.486D+00 0.149D+01
 Gap=     0.053 Goal=   None    Shift=    0.000
 RMSDP=2.24D-03 MaxDP=3.98D-02 DE=-2.48D-02 OVMax= 1.87D-01

 Cycle   3  Pass 1  IDiag  1:
 E= -230.442331779159     Delta-E=       -0.017237107332 Rises=F Damp=F
 DIIS: error= 1.65D-02 at cycle   3 NSaved=   3.
 NSaved= 3 IEnMin= 3 EnMin= -230.442331779159     IErMin= 2 ErrMin= 1.17D-02
 ErrMax= 1.65D-02 EMaxC= 1.00D-01 BMatC= 2.77D-02 BMatP= 1.89D-02
 IDIUse=2 WtCom= 0.00D+00 WtEn= 1.00D+00
 Coeff-En:   0.000D+00 0.272D+00 0.728D+00
 Coeff:      0.000D+00 0.272D+00 0.728D+00
 Gap=     0.042 Goal=   None    Shift=    0.000
 RMSDP=4.43D-03 MaxDP=8.27D-02 DE=-1.72D-02 OVMax= 2.22D-01

 Cycle   4  Pass 1  IDiag  1:
 E= -230.259088426893     Delta-E=        0.183243352266 Rises=F Damp=F
 DIIS: error= 4.23D-02 at cycle   4 NSaved=   4.
 NSaved= 4 IEnMin= 3 EnMin= -230.442331779159     IErMin= 2 ErrMin= 1.17D-02
 ErrMax= 4.23D-02 EMaxC= 1.00D-01 BMatC= 1.78D-01 BMatP= 1.89D-02
 IDIUse=2 WtCom= 0.00D+00 WtEn= 1.00D+00
 Coeff-En:   0.000D+00 0.000D+00 0.783D+00 0.217D+00
 Coeff:      0.000D+00 0.000D+00 0.783D+00 0.217D+00
 Gap=     0.046 Goal=   None    Shift=    0.000
 RMSDP=2.40D-03 MaxDP=4.07D-02 DE= 1.83D-01 OVMax= 1.20D-01

 Cycle   5  Pass 1  IDiag  1:
 E= -230.458757414597     Delta-E=       -0.199668987704 Rises=F Damp=F
 DIIS: error= 1.14D-02 at cycle   5 NSaved=   5.
 NSaved= 5 IEnMin= 5 EnMin= -230.458757414597     IErMin= 5 ErrMin= 1.14D-02
 ErrMax= 1.14D-02 EMaxC= 1.00D-01 BMatC= 1.48D-02 BMatP= 1.89D-02
 IDIUse=3 WtCom= 8.86D-01 WtEn= 1.14D-01
 Coeff-Com:  0.937D-01-0.132D+00 0.386D+00-0.223D-01 0.674D+00
 Coeff-En:   0.000D+00 0.000D+00 0.390D+00 0.000D+00 0.610D+00
 Coeff:      0.831D-01-0.117D+00 0.387D+00-0.198D-01 0.667D+00
 Gap=     0.051 Goal=   None    Shift=    0.000
 RMSDP=9.18D-04 MaxDP=1.96D-02 DE=-2.00D-01 OVMax= 4.92D-02

 Cycle   6  Pass 1  IDiag  1:
 E= -230.476153363683     Delta-E=       -0.017395949086 Rises=F Damp=F
 DIIS: error= 4.56D-04 at cycle   6 NSaved=   6.
 NSaved= 6 IEnMin= 6 EnMin= -230.476153363683     IErMin= 6 ErrMin= 4.56D-04
 ErrMax= 4.56D-04 EMaxC= 1.00D-01 BMatC= 2.22D-05 BMatP= 1.48D-02
 IDIUse=3 WtCom= 9.95D-01 WtEn= 4.56D-03
 Coeff-Com: -0.756D-02 0.102D-01 0.747D-01-0.283D-01 0.193D+00 0.758D+00
 Coeff-En:   0.000D+00 0.000D+00 0.000D+00 0.000D+00 0.000D+00 0.100D+01
 Coeff:     -0.753D-02 0.101D-01 0.744D-01-0.282D-01 0.192D+00 0.759D+00
 Gap=     0.051 Goal=   None    Shift=    0.000
 RMSDP=7.39D-05 MaxDP=7.49D-04 DE=-1.74D-02 OVMax= 6.16D-03

 Cycle   7  Pass 1  IDiag  1:
 E= -230.476183834385     Delta-E=       -0.000030470703 Rises=F Damp=F
 DIIS: error= 1.16D-04 at cycle   7 NSaved=   7.
 NSaved= 7 IEnMin= 7 EnMin= -230.476183834385     IErMin= 7 ErrMin= 1.16D-04
 ErrMax= 1.16D-04 EMaxC= 1.00D-01 BMatC= 1.78D-06 BMatP= 2.22D-05
 IDIUse=3 WtCom= 9.99D-01 WtEn= 1.16D-03
 Coeff-Com:  0.698D-03-0.736D-03 0.373D-02-0.442D-02 0.126D-01 0.137D+00
 Coeff-Com:  0.851D+00
 Coeff-En:   0.000D+00 0.000D+00 0.000D+00 0.000D+00 0.000D+00 0.000D+00
 Coeff-En:   0.100D+01
 Coeff:      0.698D-03-0.736D-03 0.372D-02-0.442D-02 0.126D-01 0.137D+00
 Coeff:      0.851D+00
 Gap=     0.051 Goal=   None    Shift=    0.000
 RMSDP=1.95D-05 MaxDP=2.82D-04 DE=-3.05D-05 OVMax= 1.65D-03

 Cycle   8  Pass 1  IDiag  1:
 E= -230.476186586781     Delta-E=       -0.000002752396 Rises=F Damp=F
 DIIS: error= 3.43D-05 at cycle   8 NSaved=   8.
 NSaved= 8 IEnMin= 8 EnMin= -230.476186586781     IErMin= 8 ErrMin= 3.43D-05
 ErrMax= 3.43D-05 EMaxC= 1.00D-01 BMatC= 1.69D-07 BMatP= 1.78D-06
 IDIUse=1 WtCom= 1.00D+00 WtEn= 0.00D+00
 Coeff-Com:  0.161D-02-0.222D-02-0.693D-03-0.130D-02 0.336D-03 0.536D-01
 Coeff-Com:  0.395D+00 0.553D+00
 Coeff:      0.161D-02-0.222D-02-0.693D-03-0.130D-02 0.336D-03 0.536D-01
 Coeff:      0.395D+00 0.553D+00
 Gap=     0.051 Goal=   None    Shift=    0.000
 RMSDP=1.26D-05 MaxDP=2.22D-04 DE=-2.75D-06 OVMax= 1.20D-03

 Cycle   9  Pass 1  IDiag  1:
 E= -230.476186482076     Delta-E=        0.000000104705 Rises=F Damp=F
 DIIS: error= 7.55D-05 at cycle   9 NSaved=   9.
 NSaved= 9 IEnMin= 8 EnMin= -230.476186586781     IErMin= 8 ErrMin= 3.43D-05
 ErrMax= 7.55D-05 EMaxC= 1.00D-01 BMatC= 4.07D-07 BMatP= 1.69D-07
 IDIUse=1 WtCom= 1.00D+00 WtEn= 0.00D+00
 Coeff-Com:  0.199D-02-0.296D-02-0.324D-02 0.133D-02-0.713D-02-0.171D-01
 Coeff-Com: -0.138D+00 0.778D+00 0.387D+00
 Coeff:      0.199D-02-0.296D-02-0.324D-02 0.133D-02-0.713D-02-0.171D-01
 Coeff:     -0.138D+00 0.778D+00 0.387D+00
 Gap=     0.051 Goal=   None    Shift=    0.000
 RMSDP=1.18D-05 MaxDP=1.94D-04 DE= 1.05D-07 OVMax= 1.13D-03

 Cycle  10  Pass 1  IDiag  1:
 E= -230.476187231828     Delta-E=       -0.000000749752 Rises=F Damp=F
 DIIS: error= 1.77D-05 at cycle  10 NSaved=  10.
 NSaved=10 IEnMin=10 EnMin= -230.476187231828     IErMin=10 ErrMin= 1.77D-05
 ErrMax= 1.77D-05 EMaxC= 1.00D-01 BMatC= 1.74D-08 BMatP= 1.69D-07
 IDIUse=1 WtCom= 1.00D+00 WtEn= 0.00D+00
 Coeff-Com: -0.247D-03 0.241D-03-0.494D-03 0.297D-03 0.205D-03 0.812D-02
 Coeff-Com: -0.176D+00-0.467D-01 0.582D-01 0.116D+01
 Coeff:     -0.247D-03 0.241D-03-0.494D-03 0.297D-03 0.205D-03 0.812D-02
 Coeff:     -0.176D+00-0.467D-01 0.582D-01 0.116D+01
 Gap=     0.051 Goal=   None    Shift=    0.000
 RMSDP=8.33D-06 MaxDP=9.85D-05 DE=-7.50D-07 OVMax= 7.88D-04

 Cycle  11  Pass 1  IDiag  1:
 E= -230.476187324720     Delta-E=       -0.000000092892 Rises=F Damp=F
 DIIS: error= 8.56D-06 at cycle  11 NSaved=  11.
 NSaved=11 IEnMin=11 EnMin= -230.476187324720     IErMin=11 ErrMin= 8.56D-06
 ErrMax= 8.56D-06 EMaxC= 1.00D-01 BMatC= 9.26D-09 BMatP= 1.74D-08
 IDIUse=1 WtCom= 1.00D+00 WtEn= 0.00D+00
 Coeff-Com: -0.635D-03 0.845D-03 0.262D-03-0.588D-04 0.174D-02 0.118D-01
 Coeff-Com: -0.122D+00-0.194D+00-0.408D-01 0.939D+00 0.404D+00
 Coeff:     -0.635D-03 0.845D-03 0.262D-03-0.588D-04 0.174D-02 0.118D-01
 Coeff:     -0.122D+00-0.194D+00-0.408D-01 0.939D+00 0.404D+00
 Gap=     0.051 Goal=   None    Shift=    0.000
 RMSDP=2.80D-06 MaxDP=3.30D-05 DE=-9.29D-08 OVMax= 2.62D-04

 Cycle  12  Pass 1  IDiag  1:
 E= -230.476187344113     Delta-E=       -0.000000019393 Rises=F Damp=F
 DIIS: error= 1.99D-06 at cycle  12 NSaved=  12.
 NSaved=12 IEnMin=12 EnMin= -230.476187344113     IErMin=12 ErrMin= 1.99D-06
 ErrMax= 1.99D-06 EMaxC= 1.00D-01 BMatC= 8.25D-10 BMatP= 9.26D-09
 IDIUse=1 WtCom= 1.00D+00 WtEn= 0.00D+00
 Coeff-Com: -0.316D-03 0.437D-03 0.217D-03-0.811D-04 0.965D-03 0.578D-02
 Coeff-Com: -0.514D-01-0.965D-01-0.251D-01 0.382D+00 0.237D+00 0.546D+00
 Coeff:     -0.316D-03 0.437D-03 0.217D-03-0.811D-04 0.965D-03 0.578D-02
 Coeff:     -0.514D-01-0.965D-01-0.251D-01 0.382D+00 0.237D+00 0.546D+00
 Gap=     0.051 Goal=   None    Shift=    0.000
 RMSDP=6.25D-07 MaxDP=6.29D-06 DE=-1.94D-08 OVMax= 5.48D-05

 Cycle  13  Pass 1  IDiag  1:
 E= -230.476187345174     Delta-E=       -0.000000001061 Rises=F Damp=F
 DIIS: error= 1.77D-06 at cycle  13 NSaved=  13.
 NSaved=13 IEnMin=13 EnMin= -230.476187345174     IErMin=13 ErrMin= 1.77D-06
 ErrMax= 1.77D-06 EMaxC= 1.00D-01 BMatC= 3.63D-10 BMatP= 8.25D-10
 IDIUse=1 WtCom= 1.00D+00 WtEn= 0.00D+00
 Coeff-Com: -0.813D-04 0.122D-03 0.114D-03-0.530D-04 0.349D-03 0.176D-02
 Coeff-Com: -0.127D-01-0.253D-01-0.771D-02 0.704D-01 0.899D-01 0.441D+00
 Coeff-Com:  0.442D+00
 Coeff:     -0.813D-04 0.122D-03 0.114D-03-0.530D-04 0.349D-03 0.176D-02
 Coeff:     -0.127D-01-0.253D-01-0.771D-02 0.704D-01 0.899D-01 0.441D+00
 Coeff:      0.442D+00
 Gap=     0.051 Goal=   None    Shift=    0.000
 RMSDP=2.48D-07 MaxDP=3.36D-06 DE=-1.06D-09 OVMax= 1.91D-05

 Cycle  14  Pass 1  IDiag  1:
 E= -230.476187345670     Delta-E=       -0.000000000496 Rises=F Damp=F
 DIIS: error= 3.32D-07 at cycle  14 NSaved=  14.
 NSaved=14 IEnMin=14 EnMin= -230.476187345670     IErMin=14 ErrMin= 3.32D-07
 ErrMax= 3.32D-07 EMaxC= 1.00D-01 BMatC= 1.58D-11 BMatP= 3.63D-10
 IDIUse=1 WtCom= 1.00D+00 WtEn= 0.00D+00
 Coeff-Com:  0.606D-04-0.836D-04-0.605D-05 0.196D-05-0.727D-04-0.453D-03
 Coeff-Com:  0.575D-02 0.147D-01 0.394D-02-0.603D-01-0.341D-01-0.492D-01
 Coeff-Com:  0.745D-01 0.105D+01
 Coeff:      0.606D-04-0.836D-04-0.605D-05 0.196D-05-0.727D-04-0.453D-03
 Coeff:      0.575D-02 0.147D-01 0.394D-02-0.603D-01-0.341D-01-0.492D-01
 Coeff:      0.745D-01 0.105D+01
 Gap=     0.051 Goal=   None    Shift=    0.000
 RMSDP=1.55D-07 MaxDP=1.79D-06 DE=-4.96D-10 OVMax= 1.27D-05

 Cycle  15  Pass 1  IDiag  1:
 E= -230.476187345722     Delta-E=       -0.000000000051 Rises=F Damp=F
 DIIS: error= 2.03D-07 at cycle  15 NSaved=  15.
 NSaved=15 IEnMin=15 EnMin= -230.476187345722     IErMin=15 ErrMin= 2.03D-07
 ErrMax= 2.03D-07 EMaxC= 1.00D-01 BMatC= 2.60D-12 BMatP= 1.58D-11
 IDIUse=1 WtCom= 1.00D+00 WtEn= 0.00D+00
 Coeff-Com:  0.922D-05-0.135D-04-0.813D-05 0.201D-05-0.177D-04-0.291D-04
 Coeff-Com:  0.128D-02 0.301D-02 0.752D-03-0.138D-01-0.100D-01-0.294D-01
 Coeff-Com: -0.917D-02 0.164D+00 0.893D+00
 Coeff:      0.922D-05-0.135D-04-0.813D-05 0.201D-05-0.177D-04-0.291D-04
 Coeff:      0.128D-02 0.301D-02 0.752D-03-0.138D-01-0.100D-01-0.294D-01
 Coeff:     -0.917D-02 0.164D+00 0.893D+00
 Gap=     0.051 Goal=   None    Shift=    0.000
 RMSDP=4.19D-08 MaxDP=5.69D-07 DE=-5.10D-11 OVMax= 3.58D-06

 Cycle  16  Pass 1  IDiag  1:
 E= -230.476187345726     Delta-E=       -0.000000000005 Rises=F Damp=F
 DIIS: error= 3.10D-08 at cycle  16 NSaved=  16.
 NSaved=16 IEnMin=16 EnMin= -230.476187345726     IErMin=16 ErrMin= 3.10D-08
 ErrMax= 3.10D-08 EMaxC= 1.00D-01 BMatC= 7.91D-14 BMatP= 2.60D-12
 IDIUse=1 WtCom= 1.00D+00 WtEn= 0.00D+00
 Coeff-Com: -0.298D-05 0.411D-05-0.205D-05 0.247D-06 0.467D-06 0.186D-04
 Coeff-Com: -0.303D-03-0.339D-03-0.163D-04 0.274D-02 0.130D-02 0.995D-03
 Coeff-Com: -0.435D-02-0.481D-01-0.868D-01 0.113D+01
 Coeff:     -0.298D-05 0.411D-05-0.205D-05 0.247D-06 0.467D-06 0.186D-04
 Coeff:     -0.303D-03-0.339D-03-0.163D-04 0.274D-02 0.130D-02 0.995D-03
 Coeff:     -0.435D-02-0.481D-01-0.868D-01 0.113D+01
 Gap=     0.051 Goal=   None    Shift=    0.000
 RMSDP=6.23D-09 MaxDP=6.49D-08 DE=-4.89D-12 OVMax= 5.05D-07

 Error on total polarization charges =  0.00674
 SCF Done:  E(RB3LYP) =  -230.476187346     A.U. after   16 cycles
             Convg  =    0.6227D-08             -V/T =  2.0135
 KE= 2.274083064525D+02 PE=-8.336403429917D+02 EE= 2.254187231434D+02
 Leave Link  502 at Mon Mar 14 13:30:46 2022, MaxMem=  536870912 cpu:      81.8
 (Enter /opt/gridunesp/dist/gaussian/g09/l601.exe)
 Copying SCF densities to generalized density rwf, IOpCl= 0 IROHF=0.

 **********************************************************************

            Population analysis using the SCF density.

 **********************************************************************

 Orbital symmetries:
       Occupied  (A) (A) (A) (A) (A) (A) (A) (A) (A) (A) (A) (A)
                 (A) (A) (A) (A) (A) (A) (A) (A)
       Virtual   (A) (A) (A) (A) (A) (A) (A) (A) (A) (A) (A) (A)
                 (A) (A) (A) (A) (A) (A) (A) (A) (A) (A) (A) (A)
                 (A) (A) (A) (A) (A) (A) (A) (A) (A) (A) (A) (A)
                 (A) (A) (A) (A) (A) (A) (A) (A) (A) (A) (A) (A)
                 (A) (A) (A) (A) (A) (A) (A) (A) (A) (A) (A) (A)
                 (A) (A) (A) (A) (A) (A) (A) (A) (A) (A) (A) (A)
                 (A) (A) (A) (A) (A) (A) (A) (A) (A) (A) (A) (A)
                 (A) (A) (A) (A) (A) (A)
 The electronic state is 1-A.
 Alpha  occ. eigenvalues --  -10.26250 -10.26250 -10.24845 -10.24823 -10.24741
 Alpha  occ. eigenvalues --  -10.24741  -0.80551  -0.73996  -0.68467  -0.61640
 Alpha  occ. eigenvalues --   -0.51854  -0.51421  -0.45085  -0.40069  -0.34108
 Alpha  occ. eigenvalues --   -0.32626  -0.31381  -0.27597  -0.26975  -0.20475
 Alpha virt. eigenvalues --   -0.15381  -0.13826  -0.10983  -0.02239  -0.01108
 Alpha virt. eigenvalues --    0.13634   0.14755   0.16092   0.18535   0.20534
 Alpha virt. eigenvalues --    0.21468   0.25344   0.28027   0.28384   0.49670
 Alpha virt. eigenvalues --    0.51867   0.53057   0.54194   0.54599   0.55156
 Alpha virt. eigenvalues --    0.55730   0.56266   0.58326   0.58868   0.60906
 Alpha virt. eigenvalues --    0.62257   0.65677   0.68897   0.69846   0.69968
 Alpha virt. eigenvalues --    0.74301   0.81683   0.86264   0.89079   0.89110
 Alpha virt. eigenvalues --    0.90333   0.94054   0.97347   0.97561   1.00468
 Alpha virt. eigenvalues --    1.13993   1.22093   1.31724   1.39858   1.41451
 Alpha virt. eigenvalues --    1.42317   1.49536   1.55219   1.55425   1.60437
 Alpha virt. eigenvalues --    1.67477   1.72256   1.72370   1.82278   1.84416
 Alpha virt. eigenvalues --    1.87434   1.88155   1.91935   1.92436   1.96166
 Alpha virt. eigenvalues --    2.05579   2.07085   2.09432   2.13793   2.17480
 Alpha virt. eigenvalues --    2.21350   2.22036   2.42739   2.43380   2.48959
 Alpha virt. eigenvalues --    2.49195   2.49870   2.52653   2.55266   2.61595
 Alpha virt. eigenvalues --    2.62177   2.70003   2.74683   2.74960   2.87440
 Alpha virt. eigenvalues --    3.34071   3.34612   3.38413   3.39080   3.95885
 Alpha virt. eigenvalues --    3.98611   4.13945   4.19130   4.28480   4.48224
     Molecular Orbital Coefficients:
                           1         2         3         4         5
                           O         O         O         O         O
     Eigenvalues --   -10.26250 -10.26250 -10.24845 -10.24823 -10.24741
   1 1   C  1S         -0.12275   0.98537  -0.00526  -0.00535   0.00091
   2        2S         -0.00594   0.04715  -0.00037  -0.00041   0.00002
   3        2PX        -0.00005   0.00026  -0.00010   0.00003  -0.00003
   4        2PY         0.00005  -0.00064   0.00011   0.00010  -0.00003
   5        2PZ         0.00000   0.00003   0.00003  -0.00003   0.00001
   6        3S          0.00203  -0.01263   0.00266   0.00417  -0.00016
   7        3PX         0.00065  -0.00022   0.00138   0.00124   0.00045
   8        3PY        -0.00043   0.00313  -0.00074  -0.00131   0.00000
   9        3PZ         0.00000  -0.00001   0.00014   0.00046  -0.00004
  10        4XX         0.00113  -0.00893  -0.00012  -0.00015   0.00003
  11        4YY         0.00111  -0.00909  -0.00018  -0.00022   0.00003
  12        4ZZ         0.00108  -0.00894  -0.00006  -0.00006  -0.00002
  13        4XY        -0.00003  -0.00002   0.00013   0.00011   0.00000
  14        4XZ         0.00000   0.00001   0.00004   0.00007   0.00000
  15        4YZ         0.00000  -0.00001  -0.00002  -0.00006   0.00000
  16 2   C  1S         -0.00092   0.00721  -0.00272  -0.00208  -0.11969
  17        2S         -0.00006   0.00018  -0.00024  -0.00008  -0.00576
  18        2PX         0.00001  -0.00010  -0.00007  -0.00006   0.00005
  19        2PY         0.00002  -0.00016   0.00000  -0.00004  -0.00011
  20        2PZ         0.00000   0.00001   0.00003   0.00002  -0.00001
  21        3S         -0.00016   0.00383   0.00024  -0.00070   0.00143
  22        3PX        -0.00011   0.00170   0.00039  -0.00041   0.00020
  23        3PY         0.00004   0.00082  -0.00002  -0.00001   0.00028
  24        3PZ         0.00000  -0.00001  -0.00008  -0.00013   0.00001
  25        4XX         0.00004  -0.00035   0.00004   0.00001   0.00108
  26        4YY         0.00005  -0.00041   0.00000   0.00007   0.00110
  27        4ZZ         0.00000  -0.00019  -0.00005   0.00002   0.00111
  28        4XY         0.00003  -0.00018   0.00000  -0.00002   0.00004
  29        4XZ         0.00000   0.00000  -0.00001  -0.00001   0.00000
  30        4YZ         0.00000   0.00000   0.00000  -0.00002   0.00000
  31 3   H  1S         -0.00001  -0.00012   0.00000  -0.00001   0.00007
  32        2S          0.00001   0.00000   0.00030   0.00006  -0.00024
  33        3PX         0.00000   0.00001   0.00002   0.00003   0.00003
  34        3PY         0.00000  -0.00004   0.00000   0.00002  -0.00004
  35        3PZ         0.00000   0.00000   0.00001   0.00001   0.00000
  36 4   C  1S         -0.00092   0.00723   0.70070   0.70366   0.00001
  37        2S          0.00000   0.00020   0.03435   0.03496  -0.00008
  38        2PX        -0.00010   0.00017  -0.00004   0.00013  -0.00005
  39        2PY         0.00005  -0.00022   0.00017   0.00035   0.00003
  40        2PZ         0.00001   0.00000   0.00040   0.00044   0.00000
  41        3S         -0.00141   0.00405  -0.00831  -0.01626   0.00062
  42        3PX         0.00042  -0.00179   0.00123  -0.00180   0.00075
  43        3PY        -0.00044   0.00140  -0.00084  -0.00287  -0.00005
  44        3PZ        -0.00009  -0.00014  -0.00106  -0.00190   0.00012
  45        4XX         0.00007  -0.00036  -0.00660  -0.00617  -0.00001
  46        4YY         0.00008  -0.00046  -0.00654  -0.00609  -0.00003
  47        4ZZ         0.00001  -0.00022  -0.00634  -0.00613  -0.00003
  48        4XY        -0.00002   0.00020  -0.00012   0.00011   0.00003
  49        4XZ         0.00001   0.00001   0.00005  -0.00005   0.00001
  50        4YZ         0.00001   0.00002  -0.00009  -0.00012  -0.00001
  51 5   H  1S         -0.00001  -0.00012  -0.00021   0.00012  -0.00005
  52        2S          0.00018   0.00041   0.00214   0.00217  -0.00011
  53        3PX        -0.00002  -0.00002   0.00004  -0.00003  -0.00003
  54        3PY         0.00002   0.00007   0.00007   0.00000   0.00000
  55        3PZ        -0.00001  -0.00007   0.00013   0.00021   0.00000
  56 6   C  1S          0.00724   0.00088   0.70346  -0.70091   0.00326
  57        2S          0.00019   0.00005   0.03449  -0.03482   0.00013
  58        2PX        -0.00019   0.00006   0.00004   0.00013  -0.00008
  59        2PY         0.00022   0.00001  -0.00017   0.00035  -0.00001
  60        2PZ         0.00000   0.00001   0.00040  -0.00044   0.00001
  61        3S          0.00427  -0.00038  -0.00838   0.01622  -0.00053
  62        3PX         0.00184   0.00003  -0.00122  -0.00181   0.00062
  63        3PY        -0.00146   0.00009   0.00085  -0.00287   0.00006
  64        3PZ        -0.00012  -0.00012  -0.00107   0.00189  -0.00017
  65        4XX        -0.00036  -0.00002  -0.00662   0.00614   0.00000
  66        4YY        -0.00046  -0.00004  -0.00657   0.00606  -0.00001
  67        4ZZ        -0.00022  -0.00004  -0.00636   0.00610  -0.00006
  68        4XY         0.00020   0.00003  -0.00012  -0.00011  -0.00004
  69        4XZ        -0.00001  -0.00001  -0.00005  -0.00005   0.00001
  70        4YZ        -0.00001  -0.00001   0.00009  -0.00012  -0.00001
  71 7   H  1S         -0.00012  -0.00004  -0.00021  -0.00012  -0.00003
  72        2S          0.00036   0.00028   0.00215  -0.00217   0.00026
  73        3PX         0.00002   0.00002  -0.00004  -0.00003  -0.00003
  74        3PY        -0.00006  -0.00004  -0.00007   0.00000  -0.00002
  75        3PZ        -0.00006  -0.00003   0.00013  -0.00021  -0.00002
  76 8   C  1S          0.98537   0.12273  -0.00528   0.00533  -0.00746
  77        2S          0.04716   0.00581  -0.00037   0.00041  -0.00048
  78        2PX        -0.00026  -0.00001   0.00010   0.00003  -0.00024
  79        2PY         0.00063   0.00011  -0.00011   0.00010  -0.00017
  80        2PZ         0.00003   0.00001   0.00003   0.00003   0.00000
  81        3S         -0.01274  -0.00113   0.00267  -0.00416   0.00363
  82        3PX         0.00037  -0.00057  -0.00139   0.00123   0.00216
  83        3PY        -0.00314  -0.00035   0.00074  -0.00131   0.00077
  84        3PZ        -0.00001   0.00000   0.00014  -0.00046   0.00004
  85        4XX        -0.00894  -0.00110  -0.00013   0.00015  -0.00025
  86        4YY        -0.00908  -0.00116  -0.00018   0.00022  -0.00026
  87        4ZZ        -0.00893  -0.00115  -0.00006   0.00006  -0.00006
  88        4XY        -0.00001  -0.00003   0.00013  -0.00011  -0.00013
  89        4XZ        -0.00001   0.00000  -0.00004   0.00007   0.00000
  90        4YZ         0.00001   0.00000   0.00002  -0.00006   0.00001
  91 9   C  1S          0.00721   0.00087  -0.00273   0.00207   0.98567
  92        2S          0.00019  -0.00001  -0.00024   0.00008   0.04730
  93        2PX         0.00010   0.00001   0.00007  -0.00006   0.00051
  94        2PY         0.00016   0.00002   0.00000  -0.00004  -0.00100
  95        2PZ         0.00001   0.00000   0.00003  -0.00002   0.00005
  96        3S          0.00375   0.00079   0.00024   0.00070  -0.01118
  97        3PX        -0.00167  -0.00031  -0.00039  -0.00041   0.00069
  98        3PY        -0.00079  -0.00024   0.00002  -0.00001   0.00248
  99        3PZ        -0.00001  -0.00001  -0.00008   0.00013  -0.00003
 100        4XX        -0.00035  -0.00005   0.00004  -0.00001  -0.00892
 101        4YY        -0.00041  -0.00005   0.00000  -0.00007  -0.00916
 102        4ZZ        -0.00019  -0.00005  -0.00005  -0.00002  -0.00924
 103        4XY        -0.00018  -0.00001   0.00000   0.00002  -0.00030
 104        4XZ         0.00000   0.00000   0.00001  -0.00001   0.00000
 105        4YZ         0.00000   0.00000   0.00000  -0.00002  -0.00001
 106 10  H  1S         -0.00011  -0.00004   0.00000   0.00001  -0.00053
 107        2S         -0.00001   0.00000   0.00030  -0.00006   0.00262
 108        3PX         0.00000  -0.00001  -0.00002   0.00003   0.00021
 109        3PY         0.00004   0.00001   0.00000   0.00002  -0.00031
 110        3PZ         0.00000   0.00000   0.00001  -0.00001   0.00000
                           6         7         8         9        10
                           O         O         O         O         O
     Eigenvalues --   -10.24741  -0.80551  -0.73996  -0.68467  -0.61640
   1 1   C  1S         -0.00746  -0.07615  -0.10859  -0.06216   0.02494
   2        2S         -0.00049   0.15360   0.22203   0.12884  -0.05320
   3        2PX         0.00024   0.04326  -0.01126  -0.11018  -0.13889
   4        2PY         0.00017  -0.05266  -0.07342  -0.03360   0.03872
   5        2PZ         0.00000   0.00433   0.00295  -0.00311  -0.00691
   6        3S          0.00369   0.10654   0.17369   0.11005  -0.04886
   7        3PX        -0.00211   0.00289  -0.00142  -0.01910  -0.02734
   8        3PY        -0.00080  -0.00798  -0.01339  -0.00627   0.01204
   9        3PZ         0.00003   0.00095   0.00093  -0.00027  -0.00195
  10        4XX        -0.00025   0.00495   0.00331   0.00089   0.00350
  11        4YY        -0.00026  -0.00157  -0.00262  -0.00248  -0.00218
  12        4ZZ        -0.00006  -0.00822  -0.01104  -0.00579   0.00235
  13        4XY        -0.00013  -0.00467  -0.00005   0.00869   0.01180
  14        4XZ         0.00000   0.00055   0.00032  -0.00038  -0.00070
  15        4YZ         0.00000  -0.00048  -0.00045   0.00015   0.00081
  16 2   C  1S          0.98567  -0.03524  -0.08853  -0.11792  -0.09751
  17        2S          0.04730   0.07093   0.17944   0.24198   0.20334
  18        2PX        -0.00052   0.02961   0.04425   0.01084  -0.06954
  19        2PY         0.00100   0.01980   0.05425   0.07807   0.07126
  20        2PZ         0.00005   0.00106   0.00153   0.00072  -0.00063
  21        3S         -0.01116   0.04790   0.14196   0.20955   0.19599
  22        3PX        -0.00066   0.00195   0.00676   0.00157  -0.01651
  23        3PY        -0.00249   0.00227   0.01002   0.01824   0.02106
  24        3PZ        -0.00003   0.00058   0.00092   0.00056  -0.00045
  25        4XX        -0.00892   0.00258   0.00306   0.00020  -0.00366
  26        4YY        -0.00917  -0.00150  -0.00345  -0.00382  -0.00217
  27        4ZZ        -0.00925  -0.00359  -0.00900  -0.01163  -0.00926
  28        4XY        -0.00030   0.00252   0.00377   0.00139  -0.00421
  29        4XZ         0.00000   0.00012   0.00010  -0.00010  -0.00031
  30        4YZ         0.00001  -0.00002  -0.00009  -0.00014  -0.00012
  31 3   H  1S         -0.00053   0.01975   0.06359   0.10839   0.12943
  32        2S          0.00264   0.00290   0.01755   0.03827   0.05841
  33        3PX        -0.00021   0.00187   0.00528   0.00771   0.00716
  34        3PY         0.00031  -0.00097  -0.00286  -0.00453  -0.00505
  35        3PZ         0.00000   0.00001   0.00001   0.00001  -0.00001
  36 4   C  1S          0.00336  -0.13043  -0.06291   0.06086   0.08917
  37        2S          0.00011   0.25629   0.12575  -0.12311  -0.18558
  38        2PX         0.00007   0.02632  -0.09070  -0.08184   0.09240
  39        2PY         0.00001   0.05481   0.02384  -0.01542   0.00820
  40        2PZ         0.00001   0.03441   0.01745  -0.02786  -0.04723
  41        3S         -0.00039   0.20095   0.11386  -0.11432  -0.19328
  42        3PX        -0.00045   0.00397  -0.01351  -0.01931   0.01918
  43        3PY        -0.00007   0.01140   0.00668  -0.00515  -0.00256
  44        3PZ        -0.00014   0.01358   0.00855  -0.01061  -0.01743
  45        4XX         0.00000   0.00332  -0.00141   0.00363   0.00909
  46        4YY        -0.00002  -0.00429  -0.00159   0.00193   0.00271
  47        4ZZ        -0.00007  -0.00994  -0.00415   0.00302   0.00237
  48        4XY        -0.00004   0.00162  -0.00778  -0.00649   0.00751
  49        4XZ        -0.00001   0.00040  -0.00119  -0.00108   0.00186
  50        4YZ         0.00000  -0.00185  -0.00148   0.00139   0.00431
  51 5   H  1S         -0.00004   0.08677   0.04695  -0.05196  -0.09869
  52        2S          0.00024   0.01317   0.01011  -0.01399  -0.03824
  53        3PX         0.00003   0.00076  -0.00163  -0.00168   0.00126
  54        3PY         0.00002   0.00551   0.00282  -0.00280  -0.00421
  55        3PZ        -0.00002  -0.00638  -0.00328   0.00325   0.00559
  56 6   C  1S          0.00081  -0.13043   0.06290   0.06086  -0.08917
  57        2S         -0.00005   0.25629  -0.12574  -0.12311   0.18558
  58        2PX         0.00003  -0.02632  -0.09070   0.08183   0.09240
  59        2PY        -0.00003  -0.05481   0.02384   0.01542   0.00820
  60        2PZ         0.00000   0.03441  -0.01745  -0.02786   0.04723
  61        3S          0.00050   0.20095  -0.11385  -0.11433   0.19327
  62        3PX        -0.00062  -0.00397  -0.01351   0.01931   0.01918
  63        3PY         0.00007  -0.01140   0.00668   0.00515  -0.00256
  64        3PZ         0.00008   0.01358  -0.00855  -0.01061   0.01743
  65        4XX        -0.00001   0.00332   0.00141   0.00363  -0.00909
  66        4YY        -0.00004  -0.00429   0.00159   0.00193  -0.00271
  67        4ZZ        -0.00005  -0.00994   0.00415   0.00302  -0.00237
  68        4XY         0.00002   0.00162   0.00778  -0.00649  -0.00751
  69        4XZ        -0.00001  -0.00040  -0.00119   0.00108   0.00186
  70        4YZ         0.00001   0.00185  -0.00148  -0.00139   0.00431
  71 7   H  1S         -0.00005   0.08677  -0.04695  -0.05196   0.09869
  72        2S         -0.00005   0.01317  -0.01011  -0.01399   0.03824
  73        3PX         0.00002  -0.00076  -0.00163   0.00168   0.00126
  74        3PY        -0.00001  -0.00551   0.00282   0.00280  -0.00421
  75        3PZ         0.00000  -0.00638   0.00328   0.00325  -0.00559
  76 8   C  1S         -0.00090  -0.07615   0.10859  -0.06215  -0.02494
  77        2S         -0.00010   0.15360  -0.22203   0.12883   0.05320
  78        2PX        -0.00003  -0.04326  -0.01126   0.11018  -0.13889
  79        2PY        -0.00001   0.05266  -0.07342   0.03360   0.03872
  80        2PZ         0.00001   0.00433  -0.00295  -0.00311   0.00691
  81        3S          0.00073   0.10654  -0.17369   0.11005   0.04886
  82        3PX         0.00007  -0.00289  -0.00142   0.01910  -0.02734
  83        3PY         0.00019   0.00798  -0.01339   0.00627   0.01204
  84        3PZ        -0.00003   0.00095  -0.00093  -0.00027   0.00195
  85        4XX        -0.00003   0.00495  -0.00331   0.00089  -0.00350
  86        4YY        -0.00003  -0.00157   0.00262  -0.00248   0.00218
  87        4ZZ        -0.00003  -0.00822   0.01104  -0.00579  -0.00235
  88        4XY        -0.00003  -0.00467   0.00005   0.00869  -0.01180
  89        4XZ         0.00000  -0.00055   0.00032   0.00038  -0.00070
  90        4YZ         0.00000   0.00048  -0.00045  -0.00015   0.00081
  91 9   C  1S          0.11968  -0.03524   0.08853  -0.11792   0.09751
  92        2S          0.00572   0.07093  -0.17944   0.24198  -0.20334
  93        2PX         0.00008  -0.02961   0.04425  -0.01084  -0.06954
  94        2PY        -0.00013  -0.01980   0.05425  -0.07807   0.07126
  95        2PZ         0.00001   0.00106  -0.00153   0.00072   0.00063
  96        3S         -0.00128   0.04791  -0.14196   0.20955  -0.19599
  97        3PX        -0.00004  -0.00195   0.00676  -0.00157  -0.01651
  98        3PY         0.00032  -0.00227   0.01002  -0.01824   0.02106
  99        3PZ         0.00000   0.00058  -0.00092   0.00056   0.00045
 100        4XX        -0.00109   0.00258  -0.00306   0.00020   0.00366
 101        4YY        -0.00112  -0.00150   0.00345  -0.00382   0.00217
 102        4ZZ        -0.00114  -0.00359   0.00900  -0.01163   0.00926
 103        4XY        -0.00003   0.00252  -0.00377   0.00139   0.00421
 104        4XZ         0.00000  -0.00012   0.00010   0.00010  -0.00031
 105        4YZ         0.00000   0.00002  -0.00009   0.00014  -0.00012
 106 10  H  1S         -0.00006   0.01976  -0.06359   0.10839  -0.12943
 107        2S          0.00039   0.00290  -0.01755   0.03827  -0.05841
 108        3PX         0.00002  -0.00187   0.00528  -0.00771   0.00716
 109        3PY        -0.00003   0.00097  -0.00286   0.00453  -0.00505
 110        3PZ         0.00000   0.00001  -0.00001   0.00001   0.00001
                          11        12        13        14        15
                           O         O         O         O         O
     Eigenvalues --    -0.51854  -0.51421  -0.45085  -0.40069  -0.34108
   1 1   C  1S         -0.07286  -0.09575   0.00943  -0.02407   0.05817
   2        2S          0.15894   0.20748  -0.01959   0.05214  -0.12347
   3        2PX         0.05221   0.03050  -0.07059  -0.25663   0.09638
   4        2PY         0.01412  -0.05295  -0.05273  -0.03464  -0.19582
   5        2PZ        -0.01717  -0.01420   0.06866   0.00285  -0.08884
   6        3S          0.16485   0.23804  -0.03703   0.08170  -0.19114
   7        3PX         0.02514   0.01009  -0.03168  -0.08840   0.03171
   8        3PY         0.01969  -0.01920  -0.02006  -0.02339  -0.12058
   9        3PZ        -0.00393  -0.00470   0.03488  -0.00013  -0.05405
  10        4XX        -0.00113  -0.00868  -0.00704  -0.00688  -0.00143
  11        4YY        -0.00761  -0.00199   0.00699   0.00232   0.01444
  12        4ZZ        -0.00533  -0.00726   0.00129  -0.00114   0.00107
  13        4XY         0.00126  -0.00171   0.00226   0.01319  -0.00455
  14        4XZ        -0.00103  -0.00104   0.00442  -0.00016  -0.00303
  15        4YZ         0.00212   0.00103  -0.00488  -0.00045   0.00394
  16 2   C  1S          0.03317   0.05568  -0.00067  -0.00349  -0.03833
  17        2S         -0.07128  -0.11843   0.00137   0.00897   0.08004
  18        2PX         0.08674   0.19463   0.08102   0.28552  -0.01949
  19        2PY        -0.00435  -0.03277  -0.02353   0.00551  -0.15039
  20        2PZ        -0.00570  -0.00428   0.02352   0.00270  -0.04275
  21        3S         -0.06679  -0.13246   0.00309   0.01598   0.12276
  22        3PX         0.02565   0.05527   0.02780   0.09975  -0.01199
  23        3PY         0.00772  -0.00909  -0.01463   0.00764  -0.10254
  24        3PZ        -0.00435  -0.00223   0.01326   0.00228  -0.02608
  25        4XX         0.00212   0.00384   0.00029  -0.00380   0.00178
  26        4YY         0.00215   0.00150  -0.00164   0.00094  -0.01174
  27        4ZZ         0.00264   0.00503   0.00059   0.00090  -0.00068
  28        4XY         0.00785   0.01375   0.00343   0.01798  -0.00632
  29        4XZ        -0.00053  -0.00019   0.00203   0.00046  -0.00234
  30        4YZ        -0.00019  -0.00015   0.00087   0.00003  -0.00196
  31 3   H  1S         -0.07283  -0.15226  -0.04727  -0.14925  -0.00273
  32        2S         -0.04804  -0.09574  -0.03600  -0.13463  -0.00125
  33        3PX        -0.00233  -0.00448  -0.00083  -0.00009  -0.00174
  34        3PY         0.00303   0.00579   0.00134   0.00550  -0.00398
  35        3PZ        -0.00006  -0.00007   0.00048   0.00005  -0.00105
  36 4   C  1S          0.05989   0.03100   0.01779   0.03425  -0.03098
  37        2S         -0.12753  -0.06423  -0.04338  -0.07584   0.06940
  38        2PX        -0.05959  -0.16520  -0.15059   0.09618  -0.17565
  39        2PY         0.21264   0.04851  -0.20462  -0.12837  -0.06958
  40        2PZ        -0.10785  -0.07254   0.23301   0.01465  -0.14132
  41        3S         -0.14334  -0.08011  -0.04649  -0.12361   0.10681
  42        3PX        -0.03114  -0.04551  -0.06564   0.03557  -0.08459
  43        3PY         0.07254   0.00821  -0.05913  -0.07299  -0.05349
  44        3PZ        -0.03098  -0.02877   0.09652   0.00178  -0.09392
  45        4XX         0.00647   0.00792  -0.00926   0.01151   0.00193
  46        4YY         0.01078   0.00129  -0.00112  -0.00717  -0.00473
  47        4ZZ        -0.00641  -0.00289   0.01400   0.00314  -0.00312
  48        4XY        -0.00065  -0.01293  -0.00304   0.00365  -0.00096
  49        4XZ         0.00173  -0.00271   0.00207   0.00064  -0.00391
  50        4YZ         0.01090   0.00216  -0.00366  -0.00243  -0.00564
  51 5   H  1S         -0.18010  -0.07708   0.17807   0.01767  -0.00910
  52        2S         -0.11200  -0.04326   0.13832   0.02456  -0.01452
  53        3PX        -0.00175  -0.00330  -0.00215   0.00204  -0.00555
  54        3PY        -0.00316  -0.00214   0.00309  -0.00162  -0.00261
  55        3PZ         0.00774   0.00289  -0.00405  -0.00021  -0.00275
  56 6   C  1S         -0.05990   0.03099   0.01779  -0.03425  -0.03098
  57        2S          0.12754  -0.06421  -0.04338   0.07584   0.06940
  58        2PX        -0.05961   0.16519   0.15059   0.09618   0.17565
  59        2PY         0.21265  -0.04847   0.20462  -0.12836   0.06958
  60        2PZ         0.10786  -0.07252   0.23301  -0.01465  -0.14132
  61        3S          0.14335  -0.08009  -0.04649   0.12361   0.10681
  62        3PX        -0.03114   0.04551   0.06564   0.03557   0.08459
  63        3PY         0.07254  -0.00820   0.05913  -0.07299   0.05349
  64        3PZ         0.03098  -0.02876   0.09652  -0.00178  -0.09393
  65        4XX        -0.00647   0.00792  -0.00926  -0.01151   0.00193
  66        4YY        -0.01078   0.00129  -0.00112   0.00717  -0.00473
  67        4ZZ         0.00641  -0.00289   0.01400  -0.00314  -0.00312
  68        4XY         0.00065  -0.01293  -0.00304  -0.00365  -0.00096
  69        4XZ         0.00173   0.00271  -0.00207   0.00064   0.00391
  70        4YZ         0.01090  -0.00216   0.00366  -0.00243   0.00564
  71 7   H  1S          0.18011  -0.07705   0.17807  -0.01767  -0.00910
  72        2S          0.11200  -0.04324   0.13832  -0.02455  -0.01453
  73        3PX        -0.00175   0.00330   0.00215   0.00204   0.00555
  74        3PY        -0.00316   0.00214  -0.00309  -0.00162   0.00261
  75        3PZ        -0.00774   0.00288  -0.00405   0.00021  -0.00275
  76 8   C  1S          0.07287  -0.09574   0.00943   0.02407   0.05817
  77        2S         -0.15897   0.20745  -0.01959  -0.05214  -0.12347
  78        2PX         0.05222  -0.03049   0.07059  -0.25664  -0.09638
  79        2PY         0.01412   0.05295   0.05273  -0.03464   0.19583
  80        2PZ         0.01718  -0.01420   0.06866  -0.00285  -0.08885
  81        3S         -0.16489   0.23801  -0.03703  -0.08170  -0.19115
  82        3PX         0.02514  -0.01009   0.03168  -0.08840  -0.03171
  83        3PY         0.01969   0.01921   0.02006  -0.02339   0.12059
  84        3PZ         0.00393  -0.00470   0.03488   0.00013  -0.05405
  85        4XX         0.00113  -0.00868  -0.00704   0.00688  -0.00143
  86        4YY         0.00761  -0.00199   0.00699  -0.00232   0.01444
  87        4ZZ         0.00533  -0.00726   0.00129   0.00114   0.00107
  88        4XY        -0.00126  -0.00171   0.00226  -0.01319  -0.00455
  89        4XZ        -0.00103   0.00104  -0.00442  -0.00016   0.00303
  90        4YZ         0.00212  -0.00103   0.00488  -0.00045  -0.00394
  91 9   C  1S         -0.03318   0.05568  -0.00067   0.00349  -0.03833
  92        2S          0.07130  -0.11842   0.00137  -0.00897   0.08005
  93        2PX         0.08677  -0.19462  -0.08102   0.28552   0.01948
  94        2PY        -0.00436   0.03277   0.02353   0.00551   0.15039
  95        2PZ         0.00570  -0.00427   0.02352  -0.00270  -0.04275
  96        3S          0.06681  -0.13245   0.00309  -0.01598   0.12276
  97        3PX         0.02566  -0.05527  -0.02781   0.09975   0.01198
  98        3PY         0.00772   0.00909   0.01463   0.00764   0.10255
  99        3PZ         0.00435  -0.00223   0.01326  -0.00228  -0.02608
 100        4XX        -0.00212   0.00384   0.00029   0.00380   0.00178
 101        4YY        -0.00215   0.00150  -0.00164  -0.00094  -0.01174
 102        4ZZ        -0.00264   0.00503   0.00059  -0.00090  -0.00068
 103        4XY        -0.00785   0.01375   0.00343  -0.01798  -0.00632
 104        4XZ        -0.00053   0.00019  -0.00203   0.00046   0.00234
 105        4YZ        -0.00019   0.00015  -0.00087   0.00003   0.00196
 106 10  H  1S          0.07285  -0.15224  -0.04727   0.14925  -0.00273
 107        2S          0.04805  -0.09573  -0.03600   0.13463  -0.00126
 108        3PX        -0.00233   0.00448   0.00083  -0.00009   0.00174
 109        3PY         0.00303  -0.00579  -0.00134   0.00550   0.00398
 110        3PZ         0.00006  -0.00007   0.00048  -0.00005  -0.00105
                          16        17        18        19        20
                           O         O         O         O         O
     Eigenvalues --    -0.32626  -0.31381  -0.27597  -0.26975  -0.20475
   1 1   C  1S         -0.03480   0.05731  -0.01331   0.01572   0.01611
   2        2S          0.07301  -0.12383   0.02974  -0.03148  -0.02806
   3        2PX         0.28013   0.05591  -0.02844   0.06457  -0.07156
   4        2PY         0.03630  -0.21258   0.05263  -0.09377  -0.06844
   5        2PZ         0.04939  -0.08113  -0.27010   0.20048   0.14424
   6        3S          0.15356  -0.17448   0.05050  -0.05962  -0.10681
   7        3PX         0.10131   0.04203  -0.02514   0.02509  -0.03552
   8        3PY         0.00687  -0.14491   0.03527  -0.07953  -0.03006
   9        3PZ         0.03280  -0.04830  -0.18922   0.13942   0.11215
  10        4XX        -0.00288   0.00177  -0.00058   0.00357   0.00168
  11        4YY        -0.00249   0.01261  -0.00166   0.00197   0.00212
  12        4ZZ        -0.00200   0.00007  -0.00013  -0.00042   0.00060
  13        4XY        -0.01572   0.00198  -0.00368   0.00451  -0.00507
  14        4XZ         0.00170  -0.00114   0.00190  -0.00161  -0.01274
  15        4YZ        -0.00218   0.00409   0.01046  -0.00669  -0.00364
  16 2   C  1S          0.03377  -0.05993   0.02547  -0.04432   0.03210
  17        2S         -0.07224   0.12596  -0.05242   0.09371  -0.06219
  18        2PX        -0.24061   0.06329  -0.02814   0.04747   0.00416
  19        2PY         0.01240  -0.20764   0.09116  -0.15968   0.17443
  20        2PZ         0.02390  -0.04951  -0.21053   0.15767   0.24949
  21        3S         -0.14824   0.22117  -0.11168   0.17549  -0.15763
  22        3PX        -0.10147   0.00574  -0.00328  -0.00521   0.03189
  23        3PY        -0.00582  -0.12889   0.05423  -0.10171   0.12283
  24        3PZ         0.01547  -0.03560  -0.15484   0.11560   0.20645
  25        4XX         0.00710  -0.00138   0.00150  -0.00274   0.00507
  26        4YY         0.00115  -0.01418   0.00558  -0.00948   0.00576
  27        4ZZ         0.00084  -0.00047  -0.00027   0.00063  -0.00085
  28        4XY        -0.01399  -0.00092  -0.00099   0.00218  -0.00358
  29        4XZ         0.00102  -0.00224  -0.00724   0.00524   0.00291
  30        4YZ         0.00113  -0.00222  -0.00793   0.00593   0.00824
  31 3   H  1S          0.11316  -0.05490   0.02880  -0.05064   0.05059
  32        2S          0.13409  -0.07141   0.04240  -0.07593   0.07596
  33        3PX        -0.00121  -0.00205   0.00091  -0.00149   0.00169
  34        3PY        -0.00321  -0.00383   0.00164  -0.00290   0.00317
  35        3PZ         0.00059  -0.00120  -0.00556   0.00422   0.00731
  36 4   C  1S          0.01734  -0.00769  -0.02799   0.01151  -0.03010
  37        2S         -0.03530   0.02943   0.06050  -0.01869   0.06769
  38        2PX        -0.26419  -0.07190   0.02284   0.07917  -0.06161
  39        2PY         0.05213   0.04478  -0.08139   0.20676  -0.11458
  40        2PZ         0.06119  -0.10854  -0.12897   0.06761  -0.17458
  41        3S         -0.07886  -0.06251   0.12005  -0.06289   0.13828
  42        3PX        -0.08254  -0.06203   0.02444   0.03147  -0.04583
  43        3PY         0.02284  -0.03384  -0.04770   0.11907  -0.07128
  44        3PZ         0.04046  -0.07135  -0.10014   0.07419  -0.14968
  45        4XX        -0.00114   0.00474  -0.00039   0.00996  -0.00069
  46        4YY         0.00351  -0.00282  -0.00227  -0.00294  -0.00137
  47        4ZZ         0.00123  -0.00462  -0.00258  -0.00485  -0.00243
  48        4XY        -0.01856   0.00190  -0.00271   0.00184   0.00227
  49        4XZ        -0.00181   0.00423   0.01246  -0.00223  -0.01186
  50        4YZ         0.00320   0.00355  -0.00544   0.01163  -0.00349
  51 5   H  1S         -0.00215  -0.07185  -0.00521  -0.08319  -0.01279
  52        2S          0.00292  -0.05592  -0.00643  -0.08920  -0.00408
  53        3PX        -0.00504  -0.00096   0.00388   0.00068  -0.00413
  54        3PY         0.00165  -0.00084  -0.00309   0.00415  -0.00396
  55        3PZ         0.00156   0.00071  -0.00286   0.00487  -0.00376
  56 6   C  1S          0.01734   0.00769   0.02799   0.01150  -0.03010
  57        2S         -0.03530  -0.02943  -0.06050  -0.01867   0.06769
  58        2PX         0.26419  -0.07189   0.02283  -0.07917   0.06161
  59        2PY        -0.05213   0.04479  -0.08143  -0.20674   0.11458
  60        2PZ         0.06119   0.10853   0.12898   0.06759  -0.17458
  61        3S         -0.07886   0.06252  -0.12007  -0.06286   0.13828
  62        3PX         0.08254  -0.06203   0.02443  -0.03147   0.04583
  63        3PY        -0.02284  -0.03383  -0.04773  -0.11906   0.07128
  64        3PZ         0.04046   0.07135   0.10015   0.07417  -0.14968
  65        4XX        -0.00114  -0.00474   0.00040   0.00996  -0.00069
  66        4YY         0.00351   0.00282   0.00227  -0.00294  -0.00137
  67        4ZZ         0.00123   0.00462   0.00258  -0.00485  -0.00243
  68        4XY        -0.01856  -0.00190   0.00271   0.00184   0.00227
  69        4XZ         0.00181   0.00423   0.01246   0.00223   0.01186
  70        4YZ        -0.00320   0.00355  -0.00545  -0.01163   0.00349
  71 7   H  1S         -0.00215   0.07185   0.00519  -0.08319  -0.01279
  72        2S          0.00293   0.05592   0.00641  -0.08920  -0.00408
  73        3PX         0.00504  -0.00096   0.00388  -0.00068   0.00413
  74        3PY        -0.00165  -0.00084  -0.00310  -0.00415   0.00396
  75        3PZ         0.00156  -0.00071   0.00286   0.00487  -0.00376
  76 8   C  1S         -0.03480  -0.05731   0.01331   0.01571   0.01611
  77        2S          0.07301   0.12383  -0.02975  -0.03147  -0.02806
  78        2PX        -0.28013   0.05591  -0.02846  -0.06457   0.07156
  79        2PY        -0.03630  -0.21258   0.05265   0.09376   0.06844
  80        2PZ         0.04938   0.08113   0.27014   0.20042   0.14424
  81        3S          0.15357   0.17448  -0.05051  -0.05960  -0.10681
  82        3PX        -0.10131   0.04203  -0.02515  -0.02509   0.03552
  83        3PY        -0.00687  -0.14490   0.03529   0.07952   0.03006
  84        3PZ         0.03280   0.04830   0.18926   0.13937   0.11215
  85        4XX        -0.00288  -0.00177   0.00058   0.00357   0.00168
  86        4YY        -0.00249  -0.01261   0.00166   0.00197   0.00212
  87        4ZZ        -0.00200  -0.00007   0.00013  -0.00042   0.00060
  88        4XY        -0.01572  -0.00198   0.00368   0.00451  -0.00507
  89        4XZ        -0.00170  -0.00114   0.00190   0.00161   0.01274
  90        4YZ         0.00218   0.00409   0.01046   0.00669   0.00364
  91 9   C  1S          0.03377   0.05993  -0.02548  -0.04431   0.03210
  92        2S         -0.07224  -0.12596   0.05244   0.09369  -0.06219
  93        2PX         0.24061   0.06329  -0.02815  -0.04746  -0.00415
  94        2PY        -0.01240  -0.20764   0.09120   0.15966  -0.17443
  95        2PZ         0.02390   0.04951   0.21057   0.15762   0.24949
  96        3S         -0.14824  -0.22117   0.11172   0.17547  -0.15763
  97        3PX         0.10147   0.00574  -0.00328   0.00521  -0.03189
  98        3PY         0.00582  -0.12889   0.05426   0.10170  -0.12283
  99        3PZ         0.01547   0.03560   0.15487   0.11557   0.20645
 100        4XX         0.00710   0.00138  -0.00150  -0.00274   0.00507
 101        4YY         0.00115   0.01418  -0.00559  -0.00948   0.00576
 102        4ZZ         0.00084   0.00047   0.00027   0.00063  -0.00085
 103        4XY        -0.01399   0.00091   0.00099   0.00218  -0.00358
 104        4XZ        -0.00102  -0.00224  -0.00725  -0.00523  -0.00291
 105        4YZ        -0.00112  -0.00222  -0.00793  -0.00593  -0.00824
 106 10  H  1S          0.11316   0.05490  -0.02881  -0.05063   0.05059
 107        2S          0.13409   0.07141  -0.04241  -0.07592   0.07596
 108        3PX         0.00121  -0.00205   0.00091   0.00149  -0.00169
 109        3PY         0.00321  -0.00383   0.00164   0.00290  -0.00317
 110        3PZ         0.00059   0.00120   0.00556   0.00422   0.00731
                          21        22        23        24        25
                           V         V         V         V         V
     Eigenvalues --    -0.15381  -0.13826  -0.10983  -0.02239  -0.01108
   1 1   C  1S          0.02911   0.02937   0.02657   0.00716   0.00122
   2        2S         -0.04649  -0.03253  -0.04185  -0.00966  -0.00834
   3        2PX        -0.05106  -0.02829  -0.02609   0.00093  -0.01768
   4        2PY        -0.22256  -0.26309  -0.18312  -0.02711   0.02499
   5        2PZ         0.04098  -0.01894   0.01457  -0.31436   0.35720
   6        3S         -0.17242  -0.25695  -0.19563  -0.07142   0.01507
   7        3PX        -0.02292  -0.05871   0.00312   0.00846   0.00506
   8        3PY        -0.16859  -0.19648  -0.13610  -0.02188   0.03344
   9        3PZ         0.04001  -0.01927   0.00221  -0.35886   0.37453
  10        4XX         0.00804   0.01186   0.00911   0.00384  -0.00184
  11        4YY         0.00342   0.00119  -0.00045  -0.00125   0.00112
  12        4ZZ        -0.00084   0.00010  -0.00057  -0.00009   0.00002
  13        4XY        -0.00805  -0.00519   0.00042   0.00229  -0.00083
  14        4XZ        -0.00834   0.00658   0.01313  -0.00913   0.00764
  15        4YZ         0.00109   0.00051  -0.00277  -0.00620   0.00465
  16 2   C  1S          0.03593   0.02482   0.00682  -0.00433   0.00205
  17        2S         -0.06021  -0.03014  -0.00262   0.00879  -0.00738
  18        2PX         0.03176   0.05495   0.05731   0.02059  -0.00707
  19        2PY         0.24557   0.22308   0.13590   0.02070  -0.00639
  20        2PZ         0.14346  -0.11153  -0.21915   0.24827  -0.27619
  21        3S         -0.22368  -0.19009  -0.05630   0.03660  -0.00278
  22        3PX         0.04397   0.02815   0.04427   0.01902   0.01118
  23        3PY         0.18409   0.17788   0.12504   0.02925  -0.01117
  24        3PZ         0.11887  -0.09942  -0.19569   0.30239  -0.32342
  25        4XX         0.00979   0.01008   0.00550  -0.00066  -0.00032
  26        4YY         0.00515   0.00376   0.00114  -0.00057   0.00060
  27        4ZZ        -0.00132  -0.00061  -0.00116   0.00025  -0.00088
  28        4XY        -0.00639  -0.00518  -0.00237   0.00014   0.00001
  29        4XZ        -0.00027   0.00024   0.00309  -0.01119   0.01412
  30        4YZ         0.00453  -0.00238  -0.00457  -0.00321   0.00378
  31 3   H  1S          0.07529   0.06384   0.03294  -0.00029  -0.00007
  32        2S          0.10753   0.06819   0.02727  -0.01757   0.01814
  33        3PX         0.00219   0.00175   0.00131   0.00044   0.00005
  34        3PY         0.00419   0.00398   0.00236   0.00035  -0.00004
  35        3PZ         0.00458  -0.00348  -0.00731   0.00856  -0.00999
  36 4   C  1S         -0.03467  -0.01289   0.03280   0.03081  -0.01410
  37        2S          0.07483   0.03517  -0.07134  -0.04703   0.02397
  38        2PX        -0.07692  -0.03069  -0.07432  -0.01951  -0.00722
  39        2PY         0.00089   0.16823   0.15057   0.08636  -0.07132
  40        2PZ        -0.16419   0.10617   0.24311   0.10570  -0.10485
  41        3S          0.17660   0.07882  -0.13859  -0.28136   0.12045
  42        3PX        -0.00032  -0.05063  -0.00861   0.00050  -0.00495
  43        3PY        -0.03005   0.15649   0.15332   0.15380  -0.10273
  44        3PZ        -0.11362   0.13693   0.22273   0.06867  -0.09673
  45        4XX         0.00572   0.00938   0.00066  -0.00013  -0.00090
  46        4YY        -0.00705  -0.00944   0.00169   0.00640   0.00081
  47        4ZZ        -0.00779  -0.00146   0.00606   0.00728  -0.00418
  48        4XY        -0.00125   0.00096   0.00531   0.00363   0.00174
  49        4XZ         0.00264   0.00429  -0.00825   0.00744  -0.01342
  50        4YZ         0.00735   0.00582  -0.00462  -0.01863   0.00820
  51 5   H  1S         -0.08643  -0.02815   0.06541   0.08474  -0.04714
  52        2S         -0.13069  -0.13733   0.07683   0.31558  -0.08789
  53        3PX        -0.00129   0.00016  -0.00299   0.00123  -0.00120
  54        3PY        -0.00155   0.00502   0.00508   0.00058  -0.00209
  55        3PZ        -0.00161   0.00352   0.00487   0.00312  -0.00274
  56 6   C  1S          0.03467  -0.01289  -0.03280  -0.03081  -0.01410
  57        2S         -0.07483   0.03517   0.07135   0.04703   0.02397
  58        2PX        -0.07692   0.03070  -0.07432  -0.01951   0.00722
  59        2PY         0.00090  -0.16823   0.15056   0.08636   0.07131
  60        2PZ         0.16419   0.10619  -0.24310  -0.10571  -0.10484
  61        3S         -0.17661   0.07880   0.13859   0.28137   0.12043
  62        3PX        -0.00032   0.05063  -0.00861   0.00050   0.00495
  63        3PY        -0.03005  -0.15649   0.15331   0.15381   0.10271
  64        3PZ         0.11362   0.13695  -0.22273  -0.06868  -0.09673
  65        4XX        -0.00572   0.00938  -0.00066   0.00013  -0.00090
  66        4YY         0.00705  -0.00944  -0.00169  -0.00640   0.00081
  67        4ZZ         0.00779  -0.00146  -0.00606  -0.00728  -0.00418
  68        4XY         0.00125   0.00096  -0.00531  -0.00363   0.00174
  69        4XZ         0.00264  -0.00429  -0.00825   0.00744   0.01341
  70        4YZ         0.00735  -0.00582  -0.00462  -0.01863  -0.00820
  71 7   H  1S          0.08643  -0.02815  -0.06541  -0.08474  -0.04713
  72        2S          0.13069  -0.13732  -0.07684  -0.31559  -0.08786
  73        3PX        -0.00129  -0.00016  -0.00299   0.00123   0.00119
  74        3PY        -0.00155  -0.00502   0.00508   0.00058   0.00209
  75        3PZ         0.00161   0.00353  -0.00487  -0.00312  -0.00274
  76 8   C  1S         -0.02911   0.02937  -0.02657  -0.00716   0.00122
  77        2S          0.04649  -0.03253   0.04185   0.00966  -0.00834
  78        2PX        -0.05107   0.02829  -0.02609   0.00094   0.01768
  79        2PY        -0.22257   0.26309  -0.18311  -0.02711  -0.02499
  80        2PZ        -0.04099  -0.01894  -0.01458   0.31439   0.35717
  81        3S          0.17243  -0.25695   0.19562   0.07142   0.01506
  82        3PX        -0.02292   0.05871   0.00312   0.00846  -0.00506
  83        3PY        -0.16860   0.19648  -0.13609  -0.02188  -0.03344
  84        3PZ        -0.04001  -0.01927  -0.00221   0.35890   0.37450
  85        4XX        -0.00804   0.01186  -0.00911  -0.00384  -0.00184
  86        4YY        -0.00342   0.00119   0.00045   0.00125   0.00112
  87        4ZZ         0.00084   0.00010   0.00057   0.00009   0.00002
  88        4XY         0.00805  -0.00519  -0.00043  -0.00229  -0.00083
  89        4XZ        -0.00834  -0.00658   0.01313  -0.00914  -0.00764
  90        4YZ         0.00109  -0.00051  -0.00277  -0.00620  -0.00465
  91 9   C  1S         -0.03593   0.02482  -0.00682   0.00433   0.00205
  92        2S          0.06021  -0.03014   0.00262  -0.00879  -0.00738
  93        2PX         0.03176  -0.05495   0.05731   0.02058   0.00707
  94        2PY         0.24558  -0.22308   0.13588   0.02071   0.00639
  95        2PZ        -0.14346  -0.11155   0.21915  -0.24829  -0.27617
  96        3S          0.22368  -0.19009   0.05629  -0.03660  -0.00278
  97        3PX         0.04397  -0.02815   0.04427   0.01902  -0.01119
  98        3PY         0.18410  -0.17788   0.12503   0.02925   0.01117
  99        3PZ        -0.11887  -0.09944   0.19568  -0.30241  -0.32340
 100        4XX        -0.00979   0.01008  -0.00550   0.00066  -0.00032
 101        4YY        -0.00515   0.00376  -0.00114   0.00057   0.00060
 102        4ZZ         0.00132  -0.00061   0.00116  -0.00025  -0.00088
 103        4XY         0.00639  -0.00518   0.00237  -0.00014   0.00001
[...]
  94        2PY         0.00011  -0.00009   0.00298   0.00000   0.00000
  95        2PZ         0.00000   0.00000   0.00000   0.00373   0.00011
  96        3S         -0.00188  -0.00221   0.00006   0.00000   0.00000
  97        3PX        -0.00087  -0.00138   0.00003   0.00000   0.00000
  98        3PY        -0.00022  -0.00007   0.00151   0.00000   0.00000
  99        3PZ         0.00000   0.00000   0.00000   0.00181   0.00005
 100        4XX        -0.00003  -0.00004   0.00005   0.00000   0.00000
 101        4YY         0.00003   0.00002   0.00001   0.00000   0.00000
 102        4ZZ         0.00002   0.00004  -0.00001   0.00000   0.00000
 103        4XY         0.00001  -0.00001   0.00016   0.00000   0.00000
 104        4XZ         0.00000   0.00000   0.00000   0.00016   0.00001
 105        4YZ         0.00000   0.00000   0.00000   0.00001   0.00000
 106 10  H  1S          0.00000   0.00000   0.00000   0.00000   0.00000
 107        2S          0.00013   0.00013   0.00000   0.00000   0.00000
 108        3PX         0.00000   0.00000   0.00000   0.00000   0.00000
 109        3PY         0.00000   0.00000   0.00000   0.00000   0.00000
 110        3PZ         0.00000   0.00000   0.00000   0.00000   0.00000
                          91        92        93        94        95
  91 9   C  1S          2.05782
  92        2S         -0.01508   0.32214
  93        2PX         0.00000   0.00000   0.42971
  94        2PY         0.00000   0.00000   0.00000   0.35664
  95        2PZ         0.00000   0.00000   0.00000   0.00000   0.34571
  96        3S         -0.04046   0.28863   0.00000   0.00000   0.00000
  97        3PX         0.00000   0.00000   0.12416   0.00000   0.00000
  98        3PY         0.00000   0.00000   0.00000   0.12726   0.00000
  99        3PZ         0.00000   0.00000   0.00000   0.00000   0.12749
 100        4XX        -0.00154   0.00528   0.00000   0.00000   0.00000
 101        4YY        -0.00097  -0.01122   0.00000   0.00000   0.00000
 102        4ZZ        -0.00094  -0.01192   0.00000   0.00000   0.00000
 103        4XY         0.00000   0.00000   0.00000   0.00000   0.00000
 104        4XZ         0.00000   0.00000   0.00000   0.00000   0.00000
 105        4YZ         0.00000   0.00000   0.00000   0.00000   0.00000
 106 10  H  1S         -0.00289   0.04522   0.08776   0.00405   0.00000
 107        2S         -0.00322   0.03507   0.03786   0.00195   0.00000
 108        3PX        -0.00037   0.00324   0.00330   0.00045   0.00000
 109        3PY        -0.00002   0.00015   0.00043   0.00115   0.00000
 110        3PZ         0.00000   0.00000   0.00000   0.00000   0.00149
                          96        97        98        99       100
  96        3S          0.62807
  97        3PX         0.00000   0.14769
  98        3PY         0.00000   0.00000   0.14241
  99        3PZ         0.00000   0.00000   0.00000   0.14723
 100        4XX         0.00494   0.00000   0.00000   0.00000   0.00045
 101        4YY        -0.01164   0.00000   0.00000   0.00000  -0.00010
 102        4ZZ        -0.01208   0.00000   0.00000   0.00000  -0.00008
 103        4XY         0.00000   0.00000   0.00000   0.00000   0.00000
 104        4XZ         0.00000   0.00000   0.00000   0.00000   0.00000
 105        4YZ         0.00000   0.00000   0.00000   0.00000   0.00000
 106 10  H  1S          0.02404   0.05447   0.00251   0.00000   0.00216
 107        2S          0.01613   0.03464   0.00187   0.00000   0.00095
 108        3PX         0.00132   0.00011   0.00011   0.00000   0.00014
 109        3PY         0.00004   0.00012   0.00105   0.00000  -0.00001
 110        3PZ         0.00000   0.00000   0.00000   0.00125   0.00000
                         101       102       103       104       105
 101        4YY         0.00100
 102        4ZZ         0.00032   0.00101
 103        4XY         0.00000   0.00000   0.00075
 104        4XZ         0.00000   0.00000   0.00000   0.00069
 105        4YZ         0.00000   0.00000   0.00000   0.00000   0.00003
 106 10  H  1S         -0.00083  -0.00079   0.00035   0.00000   0.00000
 107        2S         -0.00093  -0.00098   0.00003   0.00000   0.00000
 108        3PX        -0.00007  -0.00006   0.00002   0.00000   0.00000
 109        3PY         0.00000   0.00000  -0.00010   0.00000   0.00000
 110        3PZ         0.00000   0.00000   0.00000  -0.00011   0.00000
                         106       107       108       109       110
 106 10  H  1S          0.20557
 107        2S          0.07641   0.06852
 108        3PX         0.00000   0.00000   0.00062
 109        3PY         0.00000   0.00000   0.00000   0.00025
 110        3PZ         0.00000   0.00000   0.00000   0.00000   0.00024
     Gross orbital populations:
                           1
   1 1   C  1S          1.99189
   2        2S          0.71385
   3        2PX         0.80872
   4        2PY         0.61414
   5        2PZ         0.60781
   6        3S          0.47953
   7        3PX        -0.22755
   8        3PY         0.32108
   9        3PZ         0.37827
  10        4XX         0.01559
  11        4YY        -0.02301
  12        4ZZ        -0.02548
  13        4XY         0.00973
  14        4XZ         0.01062
  15        4YZ         0.00030
  16 2   C  1S          1.99189
  17        2S          0.70656
  18        2PX         0.79885
  19        2PY         0.61050
  20        2PZ         0.58601
  21        3S          0.70927
  22        3PX         0.29432
  23        3PY         0.40669
  24        3PZ         0.40314
  25        4XX         0.01558
  26        4YY        -0.02404
  27        4ZZ        -0.02569
  28        4XY         0.00665
  29        4XZ         0.00618
  30        4YZ         0.00024
  31 3   H  1S          0.50994
  32        2S          0.27653
  33        3PX         0.00906
  34        3PY         0.00323
  35        3PZ         0.00300
  36 4   C  1S          1.99184
  37        2S          0.70902
  38        2PX         0.73346
  39        2PY         0.76293
  40        2PZ         0.57739
  41        3S          0.53623
  42        3PX         0.23963
  43        3PY         0.22065
  44        3PZ         0.41543
  45        4XX         0.00325
  46        4YY        -0.00089
  47        4ZZ        -0.02545
  48        4XY         0.01142
  49        4XZ         0.00645
  50        4YZ         0.00255
  51 5   H  1S          0.52820
  52        2S          0.31170
  53        3PX         0.00203
  54        3PY         0.00817
  55        3PZ         0.00262
  56 6   C  1S          1.99184
  57        2S          0.70902
  58        2PX         0.73346
  59        2PY         0.76293
  60        2PZ         0.57739
  61        3S          0.53623
  62        3PX         0.23963
  63        3PY         0.22065
  64        3PZ         0.41543
  65        4XX         0.00325
  66        4YY        -0.00089
  67        4ZZ        -0.02545
  68        4XY         0.01142
  69        4XZ         0.00645
  70        4YZ         0.00255
  71 7   H  1S          0.52820
  72        2S          0.31170
  73        3PX         0.00203
  74        3PY         0.00817
  75        3PZ         0.00262
  76 8   C  1S          1.99189
  77        2S          0.71385
  78        2PX         0.80872
  79        2PY         0.61414
  80        2PZ         0.60781
  81        3S          0.47953
  82        3PX        -0.22755
  83        3PY         0.32109
  84        3PZ         0.37827
  85        4XX         0.01559
  86        4YY        -0.02301
  87        4ZZ        -0.02548
  88        4XY         0.00973
  89        4XZ         0.01062
  90        4YZ         0.00030
  91 9   C  1S          1.99189
  92        2S          0.70656
  93        2PX         0.79885
  94        2PY         0.61050
  95        2PZ         0.58601
  96        3S          0.70927
  97        3PX         0.29432
  98        3PY         0.40670
  99        3PZ         0.40314
 100        4XX         0.01558
 101        4YY        -0.02404
 102        4ZZ        -0.02569
 103        4XY         0.00665
 104        4XZ         0.00618
 105        4YZ         0.00024
 106 10  H  1S          0.50994
 107        2S          0.27653
 108        3PX         0.00906
 109        3PY         0.00323
 110        3PZ         0.00300
          Condensed to atoms (all electrons):
              1          2          3          4          5          6
     1  C    4.698368   0.659677   0.018432   0.344017  -0.025657  -0.006286
     2  C    0.659677   5.725513   0.353067  -0.255013   0.002766   0.000821
     3  H    0.018432   0.353067   0.428015   0.002224   0.000001   0.000025
     4  C    0.344017  -0.255013   0.002224   5.236974   0.368866   0.535829
     5  H   -0.025657   0.002766   0.000001   0.368866   0.551101  -0.043571
     6  C   -0.006286   0.000821   0.000025   0.535829  -0.043571   5.236978
     7  H   -0.006008   0.000255  -0.000010  -0.043571   0.004972   0.368866
     8  C   -0.006123  -0.000923   0.000002  -0.006287  -0.006008   0.344015
     9  C   -0.000923  -0.000018   0.000000   0.000821   0.000255  -0.255013
    10  H    0.000002   0.000000   0.000000   0.000025  -0.000010   0.002224
              7          8          9         10
     1  C   -0.006008  -0.006123  -0.000923   0.000002
     2  C    0.000255  -0.000923  -0.000018   0.000000
     3  H   -0.000010   0.000002   0.000000   0.000000
     4  C   -0.043571  -0.006287   0.000821   0.000025
     5  H    0.004972  -0.006008   0.000255  -0.000010
     6  C    0.368866   0.344015  -0.255013   0.002224
     7  H    0.551101  -0.025656   0.002766   0.000001
     8  C   -0.025656   4.698365   0.659681   0.018432
     9  C    0.002766   0.659681   5.725510   0.353067
    10  H    0.000001   0.018432   0.353067   0.428015
 Mulliken atomic charges:
              1
     1  C    0.324500
     2  C   -0.486144
     3  H    0.198245
     4  C   -0.183885
     5  H    0.147285
     6  C   -0.183888
     7  H    0.147285
     8  C    0.324502
     9  C   -0.486145
    10  H    0.198245
 Sum of Mulliken atomic charges =   0.00000
 Mulliken charges with hydrogens summed into heavy atoms:
              1
     1  C    0.324500
     2  C   -0.287899
     4  C   -0.036600
     6  C   -0.036603
     8  C    0.324502
     9  C   -0.287900
 Sum of Mulliken charges with hydrogens summed into heavy atoms =   0.00000
 Electronic spatial extent (au):  <R**2>=            780.0520
 Charge=              0.0000 electrons
 Dipole moment (field-independent basis, Debye):
    X=              0.0000    Y=              0.0000    Z=              0.0041  Tot=              0.0041
 Quadrupole moment (field-independent basis, Debye-Ang):
   XX=            -22.4371   YY=            -32.7683   ZZ=            -36.6953
   XY=             -2.1808   XZ=              0.0000   YZ=              0.0000
 Traceless Quadrupole moment (field-independent basis, Debye-Ang):
   XX=              8.1965   YY=             -2.1347   ZZ=             -6.0618
   XY=             -2.1808   XZ=              0.0000   YZ=              0.0000
 Octapole moment (field-independent basis, Debye-Ang**2):
  XXX=             -0.0001  YYY=              0.0000  ZZZ=              0.0048  XYY=              0.0000
  XXY=             -0.0001  XXZ=              0.0796  XZZ=              0.0000  YZZ=              0.0000
  YYZ=              0.0017  XYZ=             -0.0068
 Hexadecapole moment (field-independent basis, Debye-Ang**3):
 XXXX=           -582.6452 YYYY=            -62.9144 ZZZZ=            -37.6948 XXXY=            -55.7875
 XXXZ=             -0.0004 YYYX=             -0.0768 YYYZ=              0.0000 ZZZX=              0.0000
 ZZZY=              0.0000 XXYY=           -186.7780 XXZZ=           -185.7035 YYZZ=            -18.4569
 XXYZ=              0.0000 YYXZ=              0.0000 ZZXY=             -0.3731
 N-N= 1.613512723370D+02 E-N=-8.572475736234D+02  KE= 2.286082668512D+02
 Orbital energies and kinetic energies (alpha):
                                 1                 2
   1         O               -10.227898         15.874735
   2         O               -10.227151         15.887267
   3         O               -10.202847         15.870742
   4         O               -10.202846         15.870226
   5         O               -10.197112         15.884459
   6         O               -10.197112         15.884474
   7         O                -0.830476          1.613150
   8         O                -0.769318          1.803156
   9         O                -0.729373          1.842043
  10         O                -0.649354          1.626674
  11         O                -0.540998          1.379808
  12         O                -0.538249          1.154088
  13         O                -0.503366          1.234870
  14         O                -0.476945          1.479470
  15         O                -0.412439          1.267457
  16         O                -0.362709          1.007835
  17         O                -0.308967          1.097812
  18         O                -0.287216          1.163228
  19         O                -0.281307          1.165213
  20         O                -0.234964          1.197428
  21         V                -0.060728          1.280374
  22         V                 0.036772          1.290878
  23         V                 0.041013          1.368716
  24         V                 0.087860          1.471071
  25         V                 0.128302          1.161158
  26         V                 0.130543          1.131224
  27         V                 0.135730          1.487831
  28         V                 0.136611          1.024063
  29         V                 0.176063          1.187713
  30         V                 0.261919          2.462036
  31         V                 0.319577          1.134770
  32         V                 0.329876          1.837706
  33         V                 0.426350          1.533029
  34         V                 0.439834          1.417859
  35         V                 0.472306          1.603912
  36         V                 0.497428          1.899617
  37         V                 0.516507          2.042707
  38         V                 0.530247          1.910653
  39         V                 0.548957          2.233149
  40         V                 0.561350          1.800289
  41         V                 0.590439          2.062621
  42         V                 0.601155          2.079923
  43         V                 0.651945          2.164718
  44         V                 0.672047          2.302875
  45         V                 0.674239          2.293890
  46         V                 0.742476          1.942833
  47         V                 0.752769          1.950759
  48         V                 0.763704          2.273840
  49         V                 0.794756          2.010700
  50         V                 0.819618          2.494335
  51         V                 0.826339          2.099084
  52         V                 0.851796          2.366501
  53         V                 0.912181          2.664998
  54         V                 0.922597          2.460503
  55         V                 1.018991          2.115365
  56         V                 1.038510          2.297231
  57         V                 1.152900          3.360517
  58         V                 1.173607          3.571157
  59         V                 1.232278          2.747091
  60         V                 1.284980          2.484215
  61         V                 1.301941          2.486848
  62         V                 1.394256          2.515231
  63         V                 1.430016          2.557523
  64         V                 1.504711          2.587538
  65         V                 1.514294          2.586167
  66         V                 1.534235          2.614368
  67         V                 1.557358          2.643637
  68         V                 1.558815          2.635226
  69         V                 1.568692          2.636311
  70         V                 1.618589          2.723437
  71         V                 1.665187          2.866225
  72         V                 1.719674          2.793672
  73         V                 1.794920          2.875198
  74         V                 1.866955          3.113961
  75         V                 1.891134          3.112373
  76         V                 1.901216          3.019377
  77         V                 1.908776          3.021412
  78         V                 1.932299          3.037836
  79         V                 1.966426          3.122589
  80         V                 2.049975          3.368783
  81         V                 2.063672          3.151199
  82         V                 2.088239          3.277920
  83         V                 2.163822          3.326655
  84         V                 2.228594          3.317302
  85         V                 2.273298          3.481494
  86         V                 2.334726          3.792467
  87         V                 2.339969          3.407005
  88         V                 2.437806          3.920401
  89         V                 2.501545          3.844960
  90         V                 2.539202          3.556255
  91         V                 2.541464          3.627275
  92         V                 2.551384          4.100633
  93         V                 2.727743          4.090313
  94         V                 2.786574          4.281828
  95         V                 2.965885          4.249215
  96         V                 2.994750          4.284575
  97         V                 2.998593          4.497884
  98         V                 3.067984          5.213408
  99         V                 3.098485          5.611027
 100         V                 3.137280          4.813975
 101         V                 3.446247          5.273973
 102         V                 3.525122          5.765920
 103         V                 3.714711          7.643024
 104         V                 3.745423          7.352031
 105         V                 4.108647         10.048711
 106         V                 4.196790         10.026694
 107         V                 4.486447          9.750962
 108         V                 4.654420          9.617098
 109         V                 5.046487          9.539591
 110         V                 5.120533          9.687282
 Total kinetic energy from orbitals= 2.286082668512D+02
 No NMR shielding tensors so no spin-rotation constants.
 Leave Link  601 at Mon Mar 14 13:35:06 2022, MaxMem=  536870912 cpu:       1.6
 (Enter /opt/gridunesp/dist/gaussian/g09/l9999.exe)

 Test job not archived.
 1\1\GINC-NODE008\FOpt\RB3LYP\6-31G(d,p)\C6H4\RHEINHEIMER\14-Mar-2022\0
 \\#P B3LYP/6-31G(d,p) # Opt=tight SCRF=(Solvent=Water) # Gfinput IOP(6
 /7=3) Pop=full Density Test # Units(Ang,Deg)\\Title Card Required\\0,1
 \C,-2.6128071057,0.2883984312,0.3783071983\C,-2.7454691787,1.412777873
 2,0.8128354598\H,-2.8686361563,2.4059240682,1.1831085182\C,-2.43035157
 6,-1.037579569,-0.0911864493\H,-1.8223194951,-1.6988822427,0.522683676
 5\C,-2.9678533759,-1.5041213033,-1.2434258603\H,-3.5758995633,-0.84282
 37485,-1.8572874231\C,-2.7852478131,-2.8300468014,-1.7130096182\C,-2.6
 526461979,-3.9544552782,-2.1474823125\H,-2.5265174779,-4.9465533896,-2
 .5195635795\\Version=EM64L-G09RevA.02\State=1-A\HF=-230.8928116\RMSD=5
 .311e-09\RMSF=2.023e-05\Dipole=0.0013207,0.0004689,-0.0008076\Quadrupo
 le=-3.5459582,5.039709,-1.4937508,-1.4626655,0.7278255,3.1369638\PG=C0
 1 [X(C6H4)]\\@


 Where a calculator on the ENIAC is equipped with 18,000
 vacuum tubes and weighs 30 tons, computers inthe future
 may  have only 1,000 vacuum tubes and weigh only 1 1/2 tons.
              ---Popular Mechanics, March 1949
 Job cpu time:  0 days  0 hours 32 minutes 11.7 seconds.
 File lengths (MBytes):  RWF=    118 Int=      0 D2E=      0 Chk=      4 Scr=      2
 Normal termination of Gaussian 09 at Mon Mar 14 13:35:06 2022.
