 Entering Gaussian System, Link 0=g16
 Input=eti-2dp_anion_scf_g09.com
 Output=eti-2dp_anion_scf_g09.log
 Initial command:
 /opt/g16//g16/l1.exe "/home/orison/scrgauss/Gau-13864.inp" -scrdir="/home/orison/scrgauss/"
 Entering Link 1 = /opt/g16//g16/l1.exe PID=     13866.
  
 Copyright (c) 1988,1990,1992,1993,1995,1998,2003,2009,2016,
            Gaussian, Inc.  All Rights Reserved.
  
 This is part of the Gaussian(R) 16 program.  It is based on
 the Gaussian(R) 09 system (copyright 2009, Gaussian, Inc.),
 the Gaussian(R) 03 system (copyright 2003, Gaussian, Inc.),
 the Gaussian(R) 98 system (copyright 1998, Gaussian, Inc.),
 the Gaussian(R) 94 system (copyright 1995, Gaussian, Inc.),
 the Gaussian 92(TM) system (copyright 1992, Gaussian, Inc.),
 the Gaussian 90(TM) system (copyright 1990, Gaussian, Inc.),
 the Gaussian 88(TM) system (copyright 1988, Gaussian, Inc.),
 the Gaussian 86(TM) system (copyright 1986, Carnegie Mellon
 University), and the Gaussian 82(TM) system (copyright 1983,
 Carnegie Mellon University). Gaussian is a federally registered
 trademark of Gaussian, Inc.
  
 This software contains proprietary and confidential information,
 including trade secrets, belonging to Gaussian, Inc.
  
 This software is provided under written license and may be
 used, copied, transmitted, or stored only in accord with that
 written license.
  
 The following legend is applicable only to US Government
 contracts under FAR:
  
                    RESTRICTED RIGHTS LEGEND
  
 Use, reproduction and disclosure by the US Government is
 subject to restrictions as set forth in subparagraphs (a)
 and (c) of the Commercial Computer Software - Restricted
 Rights clause in FAR 52.227-19.
  
 Gaussian, Inc.
 340 Quinnipiac St., Bldg. 40, Wallingford CT 06492
  
  
 ---------------------------------------------------------------
 Warning -- This program may not be used in any manner that
 competes with the business of Gaussian, Inc. or will provide
 assistance to any competitor of Gaussian, Inc.  The licensee
 of this program is prohibited from giving any competitor of
 Gaussian, Inc. access to this program.  By using this program,
 the user acknowledges that Gaussian, Inc. is engaged in the
 business of creating and licensing software in the field of
 computational chemistry and represents and warrants to the
 licensee that it is not a competitor of Gaussian, Inc. and that
 it will not use this program in any manner prohibited above.
 ---------------------------------------------------------------
  

 Cite this work as:
 Gaussian 16, Revision A.03,
 M. J. Frisch, G. W. Trucks, H. B. Schlegel, G. E. Scuseria, 
 M. A. Robb, J. R. Cheeseman, G. Scalmani, V. Barone, 
 G. A. Petersson, H. Nakatsuji, X. Li, M. Caricato, A. V. Marenich, 
 J. Bloino, B. G. Janesko, R. Gomperts, B. Mennucci, H. P. Hratchian, 
 J. V. Ortiz, A. F. Izmaylov, J. L. Sonnenberg, D. Williams-Young, 
 F. Ding, F. Lipparini, F. Egidi, J. Goings, B. Peng, A. Petrone, 
 T. Henderson, D. Ranasinghe, V. G. Zakrzewski, J. Gao, N. Rega, 
 G. Zheng, W. Liang, M. Hada, M. Ehara, K. Toyota, R. Fukuda, 
 J. Hasegawa, M. Ishida, T. Nakajima, Y. Honda, O. Kitao, H. Nakai, 
 T. Vreven, K. Throssell, J. A. Montgomery, Jr., J. E. Peralta, 
 F. Ogliaro, M. J. Bearpark, J. J. Heyd, E. N. Brothers, K. N. Kudin, 
 V. N. Staroverov, T. A. Keith, R. Kobayashi, J. Normand, 
 K. Raghavachari, A. P. Rendell, J. C. Burant, S. S. Iyengar, 
 J. Tomasi, M. Cossi, J. M. Millam, M. Klene, C. Adamo, R. Cammi, 
 J. W. Ochterski, R. L. Martin, K. Morokuma, O. Farkas, 
 J. B. Foresman, and D. J. Fox, Gaussian, Inc., Wallingford CT, 2016.
 
 ******************************************
 Gaussian 16:  EM64L-G16RevA.03 25-Dec-2016
                 8-Feb-2021 
 ******************************************
 %nproc=8
 Will use up to    8 processors via shared memory.
 %Mem=4GB
 ----------------------------------------------------------------------
 #t B3LYP/6-31G(d,p) scrf=(solvent=water) # Gfinput IOP(6/7=3) Pop=hirs
 hfeld Density Test # Units(Ang,Deg)
 ----------------------------------------------------------------------
 -------------------
 eti-2dp-opt-g09.log
 -------------------
 Symbolic Z-matrix:
 Charge = -3 Multiplicity = 2
 C                     0.03678   1.86311   0.81911 
 H                     0.05643   1.53009   1.85991 
 H                    -0.8391    2.49812   0.66358 
 C                     0.00782   0.66901  -0.13618 
 O                    -0.01905   1.18454  -1.48591 
 H                    -0.56995   0.52705  -1.95789 
 P                    -1.55686  -0.36208   0.02755 
 P                     1.54994  -0.37443   0.08434 
 O                    -1.90524  -0.75366  -1.40151 
 O                     1.52327  -1.53194  -0.89046 
 O                     2.72267   0.69693  -0.46658 
 O                    -2.71715   0.76191   0.46197 
 O                    -1.47189  -1.38812   1.13493 
 O                     1.8452   -0.59649   1.55655 
 H                     0.93711   2.45999   0.63867 
 H                     3.1742    1.03141   0.3207 
 H                    -2.745     0.82287   1.42718 
 
                    Distance matrix (angstroms):
                    1          2          3          4          5
     1  C    0.000000
     2  H    1.092956   0.000000
     3  H    1.092974   1.780523   0.000000
     4  C    1.529475   2.174442   2.168532   0.000000
     5  O    2.403475   3.364463   2.649204   1.445083   0.000000
     6  H    3.140845   3.996753   3.290845   1.916402   0.979055
     7  P    2.849162   3.088779   3.016696   1.881004   2.654704
     8  P    2.799308   3.001736   3.780817   1.874975   2.712527
     9  O    3.943359   4.438527   3.996914   2.699046   2.705819
    10  O    4.081501   4.369460   4.923131   2.776636   3.180028
    11  O    3.197965   3.635319   4.148223   2.735024   2.965439
    12  O    2.987360   3.199544   2.565569   2.791393   3.354489
    13  O    3.598100   3.373026   3.965533   2.834968   3.949446
    14  O    3.140674   2.795365   4.192788   2.800498   3.987989
    15  H    1.095180   1.769672   1.776794   2.161384   2.656098
    16  H    3.283830   3.512597   4.286652   3.219633   3.672075
    17  H    3.031526   2.921545   2.649906   3.169509   4.005958
                    6          7          8          9         10
     6  H    0.000000
     7  P    2.388831   0.000000
     8  P    3.078523   3.107344   0.000000
     9  O    1.932039   1.522142   3.780190   0.000000
    10  O    3.124167   3.420309   1.513531   3.552685   0.000000
    11  O    3.618592   4.436220   1.681256   4.939216   2.566339
    12  O    3.243663   1.672826   4.431922   2.535490   5.007192
    13  O    3.747920   1.512041   3.356004   2.650257   3.618546
    14  O    4.409828   3.737218   1.517858   4.779186   2.639425
    15  H    3.570660   3.815420   2.952419   4.750667   4.314780
    16  H    4.411917   4.940717   2.161128   5.652716   3.280738
    17  H    4.034483   2.185120   4.656528   3.345464   5.397658
                   11         12         13         14         15
    11  O    0.000000
    12  O    5.518883   0.000000
    13  O    4.950414   2.574136   0.000000
    14  O    2.556549   4.884505   3.436208   0.000000
    15  H    2.741930   4.033400   4.567002   3.318012   0.000000
    16  H    0.967247   5.899203   5.301250   2.437955   2.673297
    17  H    5.787711   0.967534   2.568014   4.806377   4.106074
                   16         17
    16  H    0.000000
    17  H    6.025339   0.000000
 Framework group  C1[X(C2H6O7P2)]
 Deg. of freedom    45
                         Standard orientation:                         
 ---------------------------------------------------------------------
 Center     Atomic      Atomic             Coordinates (Angstroms)
 Number     Number       Type             X           Y           Z
 ---------------------------------------------------------------------
      1          6           0       -0.036779    1.863110   -0.819110
      2          1           0       -0.056429    1.530090   -1.859910
      3          1           0        0.839102    2.498120   -0.663580
      4          6           0       -0.007820    0.669010    0.136180
      5          8           0        0.019051    1.184540    1.485910
      6          1           0        0.569950    0.527050    1.957890
      7         15           0        1.556859   -0.362081   -0.027550
      8         15           0       -1.549941   -0.374428   -0.084340
      9          8           0        1.905239   -0.753661    1.401510
     10          8           0       -1.523272   -1.531938    0.890460
     11          8           0       -2.722670    0.696933    0.466580
     12          8           0        2.717150    0.761908   -0.461970
     13          8           0        1.471889   -1.388121   -1.134930
     14          8           0       -1.845201   -0.596488   -1.556550
     15          1           0       -0.937108    2.459991   -0.638670
     16          1           0       -3.174199    1.031413   -0.320700
     17          1           0        2.745000    0.822868   -1.427180
 ---------------------------------------------------------------------
 Rotational constants (GHZ):           1.4081499           0.6709590           0.6430224
 AO basis set in the form of general basis input (Overlap normalization):
      1 0
 S   6 1.00       0.000000000000
      0.3047524880D+04  0.1834737132D-02
      0.4573695180D+03  0.1403732281D-01
      0.1039486850D+03  0.6884262226D-01
      0.2921015530D+02  0.2321844432D+00
      0.9286662960D+01  0.4679413484D+00
      0.3163926960D+01  0.3623119853D+00
 SP   3 1.00       0.000000000000
      0.7868272350D+01 -0.1193324198D+00  0.6899906659D-01
      0.1881288540D+01 -0.1608541517D+00  0.3164239610D+00
      0.5442492580D+00  0.1143456438D+01  0.7443082909D+00
 SP   1 1.00       0.000000000000
      0.1687144782D+00  0.1000000000D+01  0.1000000000D+01
 D   1 1.00       0.000000000000
      0.8000000000D+00  0.1000000000D+01
 ****
      2 0
 S   3 1.00       0.000000000000
      0.1873113696D+02  0.3349460434D-01
      0.2825394365D+01  0.2347269535D+00
      0.6401216923D+00  0.8137573261D+00
 S   1 1.00       0.000000000000
      0.1612777588D+00  0.1000000000D+01
 P   1 1.00       0.000000000000
      0.1100000000D+01  0.1000000000D+01
 ****
      3 0
 S   3 1.00       0.000000000000
      0.1873113696D+02  0.3349460434D-01
      0.2825394365D+01  0.2347269535D+00
      0.6401216923D+00  0.8137573261D+00
 S   1 1.00       0.000000000000
      0.1612777588D+00  0.1000000000D+01
 P   1 1.00       0.000000000000
      0.1100000000D+01  0.1000000000D+01
 ****
      4 0
 S   6 1.00       0.000000000000
      0.3047524880D+04  0.1834737132D-02
      0.4573695180D+03  0.1403732281D-01
      0.1039486850D+03  0.6884262226D-01
      0.2921015530D+02  0.2321844432D+00
      0.9286662960D+01  0.4679413484D+00
      0.3163926960D+01  0.3623119853D+00
 SP   3 1.00       0.000000000000
      0.7868272350D+01 -0.1193324198D+00  0.6899906659D-01
      0.1881288540D+01 -0.1608541517D+00  0.3164239610D+00
      0.5442492580D+00  0.1143456438D+01  0.7443082909D+00
 SP   1 1.00       0.000000000000
      0.1687144782D+00  0.1000000000D+01  0.1000000000D+01
 D   1 1.00       0.000000000000
      0.8000000000D+00  0.1000000000D+01
 ****
      5 0
 S   6 1.00       0.000000000000
      0.5484671660D+04  0.1831074430D-02
      0.8252349460D+03  0.1395017220D-01
      0.1880469580D+03  0.6844507810D-01
      0.5296450000D+02  0.2327143360D+00
      0.1689757040D+02  0.4701928980D+00
      0.5799635340D+01  0.3585208530D+00
 SP   3 1.00       0.000000000000
      0.1553961625D+02 -0.1107775495D+00  0.7087426823D-01
      0.3599933586D+01 -0.1480262627D+00  0.3397528391D+00
      0.1013761750D+01  0.1130767015D+01  0.7271585773D+00
 SP   1 1.00       0.000000000000
      0.2700058226D+00  0.1000000000D+01  0.1000000000D+01
 D   1 1.00       0.000000000000
      0.8000000000D+00  0.1000000000D+01
 ****
      6 0
 S   3 1.00       0.000000000000
      0.1873113696D+02  0.3349460434D-01
      0.2825394365D+01  0.2347269535D+00
      0.6401216923D+00  0.8137573261D+00
 S   1 1.00       0.000000000000
      0.1612777588D+00  0.1000000000D+01
 P   1 1.00       0.000000000000
      0.1100000000D+01  0.1000000000D+01
 ****
      7 0
 S   6 1.00       0.000000000000
      0.1941330000D+05  0.1851598923D-02
      0.2909420000D+04  0.1420619174D-01
      0.6613640000D+03  0.6999945928D-01
      0.1857590000D+03  0.2400788603D+00
      0.5919430000D+02  0.4847617180D+00
      0.2003100000D+02  0.3351998050D+00
 SP   6 1.00       0.000000000000
      0.3394780000D+03 -0.2782170105D-02  0.4564616191D-02
      0.8101010000D+02 -0.3604990135D-01  0.3369357188D-01
      0.2587800000D+02 -0.1166310044D+00  0.1397548834D+00
      0.9452210000D+01  0.9683280364D-01  0.3393617168D+00
      0.3665660000D+01  0.6144180231D+00  0.4509206237D+00
      0.1467460000D+01  0.4037980152D+00  0.2385858009D+00
 SP   3 1.00       0.000000000000
      0.2156230000D+01 -0.2529241139D+00 -0.1776531273D-01
      0.7489970000D+00  0.3285184468D-01  0.2740581964D+00
      0.2831450000D+00  0.1081254762D+01  0.7854215630D+00
 SP   1 1.00       0.000000000000
      0.9983170000D-01  0.1000000000D+01  0.1000000000D+01
 D   1 1.00       0.000000000000
      0.5500000000D+00  0.1000000000D+01
 ****
      8 0
 S   6 1.00       0.000000000000
      0.1941330000D+05  0.1851598923D-02
      0.2909420000D+04  0.1420619174D-01
      0.6613640000D+03  0.6999945928D-01
      0.1857590000D+03  0.2400788603D+00
      0.5919430000D+02  0.4847617180D+00
      0.2003100000D+02  0.3351998050D+00
 SP   6 1.00       0.000000000000
      0.3394780000D+03 -0.2782170105D-02  0.4564616191D-02
      0.8101010000D+02 -0.3604990135D-01  0.3369357188D-01
      0.2587800000D+02 -0.1166310044D+00  0.1397548834D+00
      0.9452210000D+01  0.9683280364D-01  0.3393617168D+00
      0.3665660000D+01  0.6144180231D+00  0.4509206237D+00
      0.1467460000D+01  0.4037980152D+00  0.2385858009D+00
 SP   3 1.00       0.000000000000
      0.2156230000D+01 -0.2529241139D+00 -0.1776531273D-01
      0.7489970000D+00  0.3285184468D-01  0.2740581964D+00
      0.2831450000D+00  0.1081254762D+01  0.7854215630D+00
 SP   1 1.00       0.000000000000
      0.9983170000D-01  0.1000000000D+01  0.1000000000D+01
 D   1 1.00       0.000000000000
      0.5500000000D+00  0.1000000000D+01
 ****
      9 0
 S   6 1.00       0.000000000000
      0.5484671660D+04  0.1831074430D-02
      0.8252349460D+03  0.1395017220D-01
      0.1880469580D+03  0.6844507810D-01
      0.5296450000D+02  0.2327143360D+00
      0.1689757040D+02  0.4701928980D+00
      0.5799635340D+01  0.3585208530D+00
 SP   3 1.00       0.000000000000
      0.1553961625D+02 -0.1107775495D+00  0.7087426823D-01
      0.3599933586D+01 -0.1480262627D+00  0.3397528391D+00
      0.1013761750D+01  0.1130767015D+01  0.7271585773D+00
 SP   1 1.00       0.000000000000
      0.2700058226D+00  0.1000000000D+01  0.1000000000D+01
 D   1 1.00       0.000000000000
      0.8000000000D+00  0.1000000000D+01
 ****
     10 0
 S   6 1.00       0.000000000000
      0.5484671660D+04  0.1831074430D-02
      0.8252349460D+03  0.1395017220D-01
      0.1880469580D+03  0.6844507810D-01
      0.5296450000D+02  0.2327143360D+00
      0.1689757040D+02  0.4701928980D+00
      0.5799635340D+01  0.3585208530D+00
 SP   3 1.00       0.000000000000
      0.1553961625D+02 -0.1107775495D+00  0.7087426823D-01
      0.3599933586D+01 -0.1480262627D+00  0.3397528391D+00
      0.1013761750D+01  0.1130767015D+01  0.7271585773D+00
 SP   1 1.00       0.000000000000
      0.2700058226D+00  0.1000000000D+01  0.1000000000D+01
 D   1 1.00       0.000000000000
      0.8000000000D+00  0.1000000000D+01
 ****
     11 0
 S   6 1.00       0.000000000000
      0.5484671660D+04  0.1831074430D-02
      0.8252349460D+03  0.1395017220D-01
      0.1880469580D+03  0.6844507810D-01
      0.5296450000D+02  0.2327143360D+00
      0.1689757040D+02  0.4701928980D+00
      0.5799635340D+01  0.3585208530D+00
 SP   3 1.00       0.000000000000
      0.1553961625D+02 -0.1107775495D+00  0.7087426823D-01
      0.3599933586D+01 -0.1480262627D+00  0.3397528391D+00
      0.1013761750D+01  0.1130767015D+01  0.7271585773D+00
 SP   1 1.00       0.000000000000
      0.2700058226D+00  0.1000000000D+01  0.1000000000D+01
 D   1 1.00       0.000000000000
      0.8000000000D+00  0.1000000000D+01
 ****
     12 0
 S   6 1.00       0.000000000000
      0.5484671660D+04  0.1831074430D-02
      0.8252349460D+03  0.1395017220D-01
      0.1880469580D+03  0.6844507810D-01
      0.5296450000D+02  0.2327143360D+00
      0.1689757040D+02  0.4701928980D+00
      0.5799635340D+01  0.3585208530D+00
 SP   3 1.00       0.000000000000
      0.1553961625D+02 -0.1107775495D+00  0.7087426823D-01
      0.3599933586D+01 -0.1480262627D+00  0.3397528391D+00
      0.1013761750D+01  0.1130767015D+01  0.7271585773D+00
 SP   1 1.00       0.000000000000
      0.2700058226D+00  0.1000000000D+01  0.1000000000D+01
 D   1 1.00       0.000000000000
      0.8000000000D+00  0.1000000000D+01
 ****
     13 0
 S   6 1.00       0.000000000000
      0.5484671660D+04  0.1831074430D-02
      0.8252349460D+03  0.1395017220D-01
      0.1880469580D+03  0.6844507810D-01
      0.5296450000D+02  0.2327143360D+00
      0.1689757040D+02  0.4701928980D+00
      0.5799635340D+01  0.3585208530D+00
 SP   3 1.00       0.000000000000
      0.1553961625D+02 -0.1107775495D+00  0.7087426823D-01
      0.3599933586D+01 -0.1480262627D+00  0.3397528391D+00
      0.1013761750D+01  0.1130767015D+01  0.7271585773D+00
 SP   1 1.00       0.000000000000
      0.2700058226D+00  0.1000000000D+01  0.1000000000D+01
 D   1 1.00       0.000000000000
      0.8000000000D+00  0.1000000000D+01
 ****
     14 0
 S   6 1.00       0.000000000000
      0.5484671660D+04  0.1831074430D-02
      0.8252349460D+03  0.1395017220D-01
      0.1880469580D+03  0.6844507810D-01
      0.5296450000D+02  0.2327143360D+00
      0.1689757040D+02  0.4701928980D+00
      0.5799635340D+01  0.3585208530D+00
 SP   3 1.00       0.000000000000
      0.1553961625D+02 -0.1107775495D+00  0.7087426823D-01
      0.3599933586D+01 -0.1480262627D+00  0.3397528391D+00
      0.1013761750D+01  0.1130767015D+01  0.7271585773D+00
 SP   1 1.00       0.000000000000
      0.2700058226D+00  0.1000000000D+01  0.1000000000D+01
 D   1 1.00       0.000000000000
      0.8000000000D+00  0.1000000000D+01
 ****
     15 0
 S   3 1.00       0.000000000000
      0.1873113696D+02  0.3349460434D-01
      0.2825394365D+01  0.2347269535D+00
      0.6401216923D+00  0.8137573261D+00
 S   1 1.00       0.000000000000
      0.1612777588D+00  0.1000000000D+01
 P   1 1.00       0.000000000000
      0.1100000000D+01  0.1000000000D+01
 ****
     16 0
 S   3 1.00       0.000000000000
      0.1873113696D+02  0.3349460434D-01
      0.2825394365D+01  0.2347269535D+00
      0.6401216923D+00  0.8137573261D+00
 S   1 1.00       0.000000000000
      0.1612777588D+00  0.1000000000D+01
 P   1 1.00       0.000000000000
      0.1100000000D+01  0.1000000000D+01
 ****
     17 0
 S   3 1.00       0.000000000000
      0.1873113696D+02  0.3349460434D-01
      0.2825394365D+01  0.2347269535D+00
      0.6401216923D+00  0.8137573261D+00
 S   1 1.00       0.000000000000
      0.1612777588D+00  0.1000000000D+01
 P   1 1.00       0.000000000000
      0.1100000000D+01  0.1000000000D+01
 ****

   203 basis functions,   398 primitive gaussians,   203 cartesian basis functions
    54 alpha electrons       53 beta electrons
       nuclear repulsion energy       975.3995560417 Hartrees.
 NAtoms=   17 NActive=   17 NUniq=   17 SFac= 1.00D+00 NAtFMM=   60 NAOKFM=F Big=F
 ------------------------------------------------------------------------------
 Polarizable Continuum Model (PCM)
 =================================
 Model                : PCM.
 Atomic radii         : UFF (Universal Force Field).
 Polarization charges : Total charges.
 Charge compensation  : None.
 Solution method      : On-the-fly selection.
 Cavity type          : Scaled VdW (van der Waals Surface) (Alpha=1.100).
 Cavity algorithm     : GePol (No added spheres)
                        Default sphere list used, NSphG=   17.
                        Lebedev-Laikov grids with approx.  5.0 points / Ang**2.
                        Smoothing algorithm: York/Karplus (Gamma=1.0000).
                        Polarization charges: spherical gaussians, with
                                              point-specific exponents (IZeta= 3).
                        Self-potential: point-specific (ISelfS= 7).
                        Self-field    : sphere-specific E.n sum rule (ISelfD= 2).
 Solvent              : Water, Eps=  78.355300 Eps(inf)=   1.777849
 ------------------------------------------------------------------------------
 Spheres list:
 ISph  on   Nord     Re0    Alpha      Xe            Ye            Ze
    1   C      1    1.9255  1.100     -0.036779      1.863110     -0.819110
    2   H      2    1.4430  1.100     -0.056429      1.530090     -1.859910
    3   H      3    1.4430  1.100      0.839102      2.498120     -0.663580
    4   C      4    1.9255  1.100     -0.007820      0.669010      0.136180
    5   O      5    1.7500  1.100      0.019051      1.184540      1.485910
    6   H      6    1.4430  1.100      0.569950      0.527050      1.957890
    7   P      7    2.0735  1.100      1.556859     -0.362081     -0.027550
    8   P      8    2.0735  1.100     -1.549941     -0.374428     -0.084340
    9   O      9    1.7500  1.100      1.905239     -0.753661      1.401510
   10   O     10    1.7500  1.100     -1.523272     -1.531938      0.890460
   11   O     11    1.7500  1.100     -2.722670      0.696933      0.466580
   12   O     12    1.7500  1.100      2.717150      0.761908     -0.461970
   13   O     13    1.7500  1.100      1.471889     -1.388121     -1.134930
   14   O     14    1.7500  1.100     -1.845201     -0.596488     -1.556550
   15   H     15    1.4430  1.100     -0.937108      2.459991     -0.638670
   16   H     16    1.4430  1.100     -3.174199      1.031413     -0.320700
   17   H     17    1.4430  1.100      2.745000      0.822868     -1.427180
 ------------------------------------------------------------------------------
 ExpMin= 9.98D-02 ExpMax= 1.94D+04 ExpMxC= 2.91D+03 IAcc=3 IRadAn=         5 AccDes= 0.00D+00
 Harris functional with IExCor=  402 and IRadAn=       5 diagonalized for initial guess.
 HarFok:  IExCor=  402 AccDes= 0.00D+00 IRadAn=         5 IDoV= 1 UseB2=F ITyADJ=14
 ICtDFT=  3500011 ScaDFX=  1.000000  1.000000  1.000000  1.000000
 FoFCou: FMM=F IPFlag=           0 FMFlag=      100000 FMFlg1=           0
         NFxFlg=           0 DoJE=T BraDBF=F KetDBF=T FulRan=T
         wScrn=  0.000000 ICntrl=       500 IOpCl=  0 I1Cent=   200000004 NGrid=           0
         NMat0=    1 NMatS0=      1 NMatT0=    0 NMatD0=    1 NMtDS0=    0 NMtDT0=    0
 Petite list used in FoFCou.
 Initial guess <Sx>= 0.0000 <Sy>= 0.0000 <Sz>= 0.5000 <S**2>= 0.7500 S= 0.5000
 Inv3:  Mode=1 IEnd=     7921875.
 Iteration    1 A*A^-1 deviation from unit magnitude is 6.33D-15 for     25.
 Iteration    1 A*A^-1 deviation from orthogonality  is 2.85D-15 for   1439    312.
 Iteration    1 A^-1*A deviation from unit magnitude is 5.88D-15 for    900.
 Iteration    1 A^-1*A deviation from orthogonality  is 2.50D-15 for   1500    176.
 Error on total polarization charges =  0.01255
 SCF Done:  E(UB3LYP) =  -1289.47602230     A.U. after   19 cycles
            NFock= 19  Conv=0.80D-08     -V/T= 2.0056
 <Sx>= 0.0000 <Sy>= 0.0000 <Sz>= 0.5000 <S**2>= 0.7508 S= 0.5004
 <L.S>= 0.000000000000E+00
 Annihilation of the first spin contaminant:
 S**2 before annihilation     0.7508,   after     0.7500

 **********************************************************************

            Population analysis using the SCF density.

 **********************************************************************

 Orbital symmetries:
 Alpha Orbitals:
       Occupied  (A) (A) (A) (A) (A) (A) (A) (A) (A) (A) (A) (A)
                 (A) (A) (A) (A) (A) (A) (A) (A) (A) (A) (A) (A)
                 (A) (A) (A) (A) (A) (A) (A) (A) (A) (A) (A) (A)
                 (A) (A) (A) (A) (A) (A) (A) (A) (A) (A) (A) (A)
                 (A) (A) (A) (A) (A) (A)
       Virtual   (A) (A) (A) (A) (A) (A) (A) (A) (A) (A) (A) (A)
                 (A) (A) (A) (A) (A) (A) (A) (A) (A) (A) (A) (A)
                 (A) (A) (A) (A) (A) (A) (A) (A) (A) (A) (A) (A)
                 (A) (A) (A) (A) (A) (A) (A) (A) (A) (A) (A) (A)
                 (A) (A) (A) (A) (A) (A) (A) (A) (A) (A) (A) (A)
                 (A) (A) (A) (A) (A) (A) (A) (A) (A) (A) (A) (A)
                 (A) (A) (A) (A) (A) (A) (A) (A) (A) (A) (A) (A)
                 (A) (A) (A) (A) (A) (A) (A) (A) (A) (A) (A) (A)
                 (A) (A) (A) (A) (A) (A) (A) (A) (A) (A) (A) (A)
                 (A) (A) (A) (A) (A) (A) (A) (A) (A) (A) (A) (A)
                 (A) (A) (A) (A) (A) (A) (A) (A) (A) (A) (A) (A)
                 (A) (A) (A) (A) (A) (A) (A) (A) (A) (A) (A) (A)
                 (A) (A) (A) (A) (A)
 Beta  Orbitals:
       Occupied  (A) (A) (A) (A) (A) (A) (A) (A) (A) (A) (A) (A)
                 (A) (A) (A) (A) (A) (A) (A) (A) (A) (A) (A) (A)
                 (A) (A) (A) (A) (A) (A) (A) (A) (A) (A) (A) (A)
                 (A) (A) (A) (A) (A) (A) (A) (A) (A) (A) (A) (A)
                 (A) (A) (A) (A) (A)
       Virtual   (A) (A) (A) (A) (A) (A) (A) (A) (A) (A) (A) (A)
                 (A) (A) (A) (A) (A) (A) (A) (A) (A) (A) (A) (A)
                 (A) (A) (A) (A) (A) (A) (A) (A) (A) (A) (A) (A)
                 (A) (A) (A) (A) (A) (A) (A) (A) (A) (A) (A) (A)
                 (A) (A) (A) (A) (A) (A) (A) (A) (A) (A) (A) (A)
                 (A) (A) (A) (A) (A) (A) (A) (A) (A) (A) (A) (A)
                 (A) (A) (A) (A) (A) (A) (A) (A) (A) (A) (A) (A)
                 (A) (A) (A) (A) (A) (A) (A) (A) (A) (A) (A) (A)
                 (A) (A) (A) (A) (A) (A) (A) (A) (A) (A) (A) (A)
                 (A) (A) (A) (A) (A) (A) (A) (A) (A) (A) (A) (A)
                 (A) (A) (A) (A) (A) (A) (A) (A) (A) (A) (A) (A)
                 (A) (A) (A) (A) (A) (A) (A) (A) (A) (A) (A) (A)
                 (A) (A) (A) (A) (A) (A)
 The electronic state is 2-A.
 Alpha  occ. eigenvalues --  -77.12182 -77.10961 -19.10786 -19.09775 -19.05469
 Alpha  occ. eigenvalues --  -19.03865 -19.03812 -19.03313 -19.02876 -10.17877
 Alpha  occ. eigenvalues --  -10.13523  -6.57061  -6.55811  -4.73577  -4.73269
 Alpha  occ. eigenvalues --   -4.73219  -4.72245  -4.72055  -4.72026  -0.98289
 Alpha  occ. eigenvalues --   -0.96828  -0.94238  -0.90116  -0.88381  -0.86282
 Alpha  occ. eigenvalues --   -0.85681  -0.70314  -0.57565  -0.51623  -0.48269
 Alpha  occ. eigenvalues --   -0.45769  -0.42185  -0.39084  -0.38110  -0.37314
 Alpha  occ. eigenvalues --   -0.35828  -0.34780  -0.33373  -0.33067  -0.31237
 Alpha  occ. eigenvalues --   -0.30527  -0.30075  -0.27985  -0.26056  -0.24997
 Alpha  occ. eigenvalues --   -0.24725  -0.22881  -0.22311  -0.21894  -0.20945
 Alpha  occ. eigenvalues --   -0.20858  -0.20256  -0.18463   0.04855
 Alpha virt. eigenvalues --    0.10710   0.13628   0.14393   0.17095   0.18046
 Alpha virt. eigenvalues --    0.19277   0.19786   0.21051   0.22364   0.23200
 Alpha virt. eigenvalues --    0.24330   0.25563   0.28036   0.29398   0.31355
 Alpha virt. eigenvalues --    0.37949   0.38529   0.42801   0.43337   0.46313
 Alpha virt. eigenvalues --    0.46687   0.50371   0.52525   0.59831   0.62186
 Alpha virt. eigenvalues --    0.62840   0.68816   0.69872   0.71104   0.75508
 Alpha virt. eigenvalues --    0.79532   0.80262   0.82918   0.84452   0.84874
 Alpha virt. eigenvalues --    0.86840   0.88055   0.88812   0.91734   0.93866
 Alpha virt. eigenvalues --    0.94048   0.96144   0.96370   0.97204   0.98677
 Alpha virt. eigenvalues --    1.00741   1.04294   1.05157   1.05456   1.07153
 Alpha virt. eigenvalues --    1.07830   1.09502   1.09845   1.10570   1.11738
 Alpha virt. eigenvalues --    1.12638   1.14801   1.15436   1.19852   1.21123
 Alpha virt. eigenvalues --    1.23609   1.24287   1.26019   1.28059   1.28374
 Alpha virt. eigenvalues --    1.32480   1.37090   1.39560   1.45403   1.46584
 Alpha virt. eigenvalues --    1.49165   1.52419   1.55121   1.58141   1.62685
 Alpha virt. eigenvalues --    1.65886   1.67667   1.69241   1.72566   1.74176
 Alpha virt. eigenvalues --    1.77273   1.79397   1.84504   1.85908   1.87713
 Alpha virt. eigenvalues --    1.88614   1.89339   1.90422   1.91686   1.92328
 Alpha virt. eigenvalues --    1.93017   1.94304   1.96759   1.96973   2.00373
 Alpha virt. eigenvalues --    2.04388   2.05670   2.07363   2.09221   2.09989
 Alpha virt. eigenvalues --    2.11866   2.15208   2.16013   2.17828   2.20443
 Alpha virt. eigenvalues --    2.21508   2.25041   2.31204   2.33136   2.37620
 Alpha virt. eigenvalues --    2.42596   2.43674   2.47435   2.48815   2.53980
 Alpha virt. eigenvalues --    2.55514   2.56368   2.60173   2.68056   2.71742
 Alpha virt. eigenvalues --    2.73945   2.74813   2.78323   2.81329   2.82510
 Alpha virt. eigenvalues --    2.84330   2.86806   2.89613   2.90132   2.92137
 Alpha virt. eigenvalues --    2.98025   3.05624   3.25623   3.42439   3.46128
 Alpha virt. eigenvalues --    3.48255   3.49922   3.53098   3.58204   3.63519
 Alpha virt. eigenvalues --    3.87781   3.90531   3.95493   4.00437   4.06841
 Alpha virt. eigenvalues --    4.15507   4.27168   4.43737   4.62893
  Beta  occ. eigenvalues --  -77.12177 -77.10941 -19.10725 -19.09759 -19.04813
  Beta  occ. eigenvalues --  -19.03856 -19.03802 -19.03229 -19.02798 -10.17825
  Beta  occ. eigenvalues --  -10.13378  -6.57055  -6.55782  -4.73569  -4.73264
  Beta  occ. eigenvalues --   -4.73214  -4.72210  -4.72038  -4.72005  -0.98179
  Beta  occ. eigenvalues --   -0.96706  -0.93455  -0.90063  -0.87596  -0.86257
  Beta  occ. eigenvalues --   -0.85484  -0.70143  -0.57339  -0.51390  -0.47997
  Beta  occ. eigenvalues --   -0.45301  -0.41860  -0.39027  -0.37829  -0.37083
  Beta  occ. eigenvalues --   -0.35759  -0.34633  -0.33259  -0.32785  -0.31193
  Beta  occ. eigenvalues --   -0.30348  -0.29720  -0.27895  -0.26006  -0.24841
  Beta  occ. eigenvalues --   -0.24386  -0.22641  -0.22192  -0.21701  -0.20842
  Beta  occ. eigenvalues --   -0.20772  -0.20037  -0.18364
  Beta virt. eigenvalues --    0.10383   0.13399   0.14043   0.14703   0.18401
  Beta virt. eigenvalues --    0.19036   0.19601   0.20612   0.21647   0.22569
  Beta virt. eigenvalues --    0.23582   0.24729   0.25945   0.28194   0.29804
  Beta virt. eigenvalues --    0.31693   0.38021   0.38957   0.42930   0.43533
  Beta virt. eigenvalues --    0.46467   0.46954   0.50623   0.52844   0.59983
  Beta virt. eigenvalues --    0.62371   0.62954   0.69012   0.70011   0.71234
  Beta virt. eigenvalues --    0.75702   0.79666   0.80373   0.83070   0.84557
  Beta virt. eigenvalues --    0.85746   0.86945   0.88436   0.88913   0.91838
  Beta virt. eigenvalues --    0.93985   0.94226   0.96610   0.97028   0.97746
  Beta virt. eigenvalues --    0.98912   1.00977   1.04696   1.05303   1.05782
  Beta virt. eigenvalues --    1.07280   1.07946   1.09737   1.10066   1.10695
  Beta virt. eigenvalues --    1.11903   1.12794   1.14903   1.15576   1.20057
  Beta virt. eigenvalues --    1.21247   1.23764   1.24352   1.26147   1.28257
  Beta virt. eigenvalues --    1.28506   1.32821   1.37247   1.39761   1.45491
  Beta virt. eigenvalues --    1.46702   1.49340   1.52581   1.55241   1.58254
  Beta virt. eigenvalues --    1.62759   1.66154   1.67885   1.69540   1.72644
  Beta virt. eigenvalues --    1.74248   1.77602   1.79466   1.84605   1.85976
  Beta virt. eigenvalues --    1.87751   1.88659   1.89366   1.90476   1.91815
  Beta virt. eigenvalues --    1.92383   1.93087   1.94375   1.96841   1.97060
  Beta virt. eigenvalues --    2.00508   2.04480   2.05736   2.07420   2.09317
  Beta virt. eigenvalues --    2.10110   2.12002   2.15345   2.16141   2.17971
  Beta virt. eigenvalues --    2.20532   2.21668   2.25171   2.31278   2.33264
  Beta virt. eigenvalues --    2.37753   2.42809   2.44529   2.47629   2.48927
  Beta virt. eigenvalues --    2.54115   2.55763   2.56527   2.60665   2.68218
  Beta virt. eigenvalues --    2.71901   2.74833   2.75701   2.78541   2.82187
  Beta virt. eigenvalues --    2.83227   2.84493   2.86915   2.89666   2.90256
  Beta virt. eigenvalues --    2.92272   2.98151   3.05728   3.25809   3.42609
  Beta virt. eigenvalues --    3.47460   3.48414   3.50874   3.53220   3.58265
  Beta virt. eigenvalues --    3.63621   3.87959   3.90673   3.95611   4.00571
  Beta virt. eigenvalues --    4.07000   4.15617   4.27455   4.43866   4.63062
     Alpha Molecular Orbital Coefficients:
                           1         2         3         4         5
                           O         O         O         O         O
     Eigenvalues --   -77.12182 -77.10961 -19.10786 -19.09775 -19.05469
   1 1   C  1S         -0.00001  -0.00001  -0.00003   0.00000   0.00001
   2        2S         -0.00002   0.00000  -0.00017   0.00008  -0.00001
   3        2PX         0.00001  -0.00001   0.00001   0.00002   0.00002
   4        2PY         0.00003   0.00003   0.00001   0.00002  -0.00001
   5        2PZ        -0.00001  -0.00002   0.00003   0.00009   0.00002
   6        3S          0.00003  -0.00006   0.00106   0.00025  -0.00003
   7        3PX         0.00005  -0.00011  -0.00024  -0.00008   0.00006
   8        3PY         0.00016   0.00016  -0.00046  -0.00028   0.00010
   9        3PZ        -0.00012  -0.00011   0.00022  -0.00033   0.00004
  10        4XX        -0.00001  -0.00002  -0.00003   0.00002   0.00007
  11        4YY        -0.00004  -0.00005  -0.00003   0.00000   0.00003
  12        4ZZ        -0.00003  -0.00003  -0.00002  -0.00007   0.00002
  13        4XY        -0.00000   0.00001   0.00001  -0.00000  -0.00001
  14        4XZ         0.00002  -0.00002  -0.00001  -0.00000  -0.00000
  15        4YZ         0.00001   0.00001  -0.00003  -0.00000   0.00000
  16 2   H  1S          0.00002   0.00001  -0.00007  -0.00004  -0.00002
  17        2S         -0.00020  -0.00013  -0.00004  -0.00029   0.00019
  18        3PX         0.00002  -0.00001   0.00001   0.00001   0.00002
  19        3PY         0.00002   0.00002   0.00002   0.00002  -0.00001
  20        3PZ        -0.00002  -0.00001  -0.00000  -0.00001   0.00002
  21 3   H  1S         -0.00001   0.00002  -0.00001   0.00007   0.00005
  22        2S         -0.00003  -0.00013   0.00013   0.00010  -0.00014
  23        3PX         0.00000  -0.00001  -0.00001   0.00000   0.00002
  24        3PY        -0.00001   0.00003  -0.00000  -0.00000   0.00002
  25        3PZ         0.00001  -0.00001  -0.00000   0.00005   0.00001
  26 4   C  1S         -0.00004  -0.00004  -0.00000  -0.00002  -0.00002
  27        2S         -0.00004  -0.00007  -0.00004   0.00005  -0.00012
  28        2PX        -0.00005   0.00005  -0.00008   0.00001   0.00003
  29        2PY        -0.00001  -0.00001   0.00005   0.00016  -0.00001
  30        2PZ        -0.00001   0.00000  -0.00004   0.00027  -0.00006
  31        3S          0.00095   0.00108   0.00028  -0.00089   0.00075
  32        3PX        -0.00034   0.00036  -0.00011  -0.00019   0.00029
  33        3PY        -0.00020  -0.00016  -0.00084  -0.00063  -0.00023
  34        3PZ         0.00004   0.00001   0.00033  -0.00077  -0.00010
  35        4XX        -0.00012  -0.00012   0.00006   0.00003   0.00004
  36        4YY        -0.00010  -0.00010  -0.00000   0.00006  -0.00002
  37        4ZZ        -0.00007  -0.00007  -0.00002   0.00023  -0.00004
  38        4XY        -0.00004   0.00004   0.00003   0.00001  -0.00002
  39        4XZ        -0.00001   0.00000  -0.00001  -0.00001  -0.00001
  40        4YZ        -0.00001  -0.00000   0.00002   0.00013  -0.00002
  41 5   O  1S          0.00000   0.00000  -0.00008   0.99276  -0.00005
  42        2S          0.00002  -0.00000  -0.00011   0.02585  -0.00016
  43        2PX        -0.00000  -0.00001   0.00002   0.00044  -0.00005
  44        2PY         0.00001   0.00001   0.00003  -0.00077   0.00001
  45        2PZ         0.00001   0.00001   0.00000  -0.00019   0.00005
  46        3S         -0.00021  -0.00018   0.00040   0.01207   0.00054
  47        3PX         0.00012  -0.00001  -0.00018   0.00005   0.00018
  48        3PY         0.00004   0.00002  -0.00006  -0.00032  -0.00003
  49        3PZ         0.00010   0.00015  -0.00008  -0.00031  -0.00025
  50        4XX         0.00000   0.00001  -0.00003  -0.00803  -0.00009
  51        4YY        -0.00001  -0.00001  -0.00005  -0.00803  -0.00015
  52        4ZZ        -0.00000  -0.00000  -0.00006  -0.00812  -0.00011
  53        4XY         0.00002  -0.00004   0.00003  -0.00005  -0.00002
  54        4XZ        -0.00001   0.00001   0.00002   0.00004  -0.00003
  55        4YZ         0.00000  -0.00000  -0.00002  -0.00009   0.00002
  56 6   H  1S          0.00001  -0.00002  -0.00009   0.00025  -0.00007
  57        2S         -0.00014  -0.00022   0.00015  -0.00155   0.00038
  58        3PX         0.00002   0.00002   0.00001   0.00010  -0.00001
  59        3PY         0.00001  -0.00001   0.00002  -0.00009   0.00002
  60        3PZ         0.00003  -0.00001   0.00001   0.00015  -0.00002
  61 7   P  1S         -0.00013   0.99625   0.00000   0.00000   0.00001
  62        2S         -0.00000   0.01417   0.00001   0.00001   0.00000
  63        2PX        -0.00001  -0.00001  -0.00001  -0.00000  -0.00004
  64        2PY         0.00001   0.00003   0.00000   0.00000  -0.00006
  65        2PZ        -0.00000  -0.00000   0.00001  -0.00000   0.00001
  66        3S          0.00014  -0.02719   0.00004   0.00015   0.00004
  67        3PX         0.00009   0.00011   0.00005  -0.00004  -0.00002
  68        3PY        -0.00005  -0.00012  -0.00001   0.00000   0.00014
  69        3PZ         0.00002  -0.00001  -0.00002   0.00007   0.00002
  70        4S         -0.00023   0.00283  -0.00035  -0.00006  -0.00268
  71        4PX         0.00014  -0.00029   0.00015  -0.00007  -0.00080
  72        4PY         0.00009   0.00000   0.00002  -0.00028  -0.00154
  73        4PZ         0.00004  -0.00008   0.00018   0.00027  -0.00072
  74        5XX        -0.00011   0.00941  -0.00005  -0.00003   0.00017
  75        5YY        -0.00003   0.00944   0.00001  -0.00002   0.00020
  76        5ZZ        -0.00003   0.00945  -0.00001  -0.00001  -0.00003
  77        5XY         0.00001   0.00002   0.00001  -0.00003   0.00016
  78        5XZ         0.00002   0.00003   0.00003   0.00003  -0.00010
  79        5YZ        -0.00000   0.00001  -0.00002  -0.00003  -0.00005
  80 8   P  1S          0.99625   0.00013   0.00001   0.00000   0.00000
  81        2S          0.01417   0.00001   0.00002   0.00006   0.00001
  82        2PX        -0.00001   0.00001   0.00004  -0.00000  -0.00000
  83        2PY         0.00003   0.00001  -0.00006  -0.00001  -0.00000
  84        2PZ         0.00001   0.00000  -0.00003   0.00000   0.00000
  85        3S         -0.02720   0.00015   0.00012   0.00033   0.00006
  86        3PX        -0.00010  -0.00008   0.00008   0.00008   0.00002
  87        3PY        -0.00012  -0.00006   0.00022   0.00016   0.00001
  88        3PZ        -0.00002  -0.00003   0.00006  -0.00001  -0.00001
  89        4S          0.00292  -0.00028  -0.00312  -0.00140  -0.00038
  90        4PX         0.00027  -0.00016   0.00033  -0.00029  -0.00033
  91        4PY         0.00012   0.00007  -0.00123  -0.00052   0.00024
  92        4PZ        -0.00016   0.00005  -0.00118  -0.00043  -0.00004
  93        5XX         0.00940  -0.00011   0.00019  -0.00000  -0.00001
  94        5YY         0.00943  -0.00002   0.00018   0.00003   0.00001
  95        5ZZ         0.00947  -0.00003   0.00000  -0.00003  -0.00000
  96        5XY        -0.00002  -0.00002  -0.00012   0.00002  -0.00001
  97        5XZ        -0.00001  -0.00000  -0.00008   0.00000  -0.00000
  98        5YZ        -0.00000  -0.00001   0.00013   0.00001   0.00001
  99 9   O  1S          0.00001   0.00000   0.00000  -0.00001  -0.00002
 100        2S          0.00002  -0.00007   0.00004  -0.00000  -0.00023
 101        2PX        -0.00001   0.00003  -0.00000   0.00001  -0.00003
 102        2PY         0.00000  -0.00005   0.00002  -0.00001  -0.00002
 103        2PZ        -0.00001   0.00016   0.00000  -0.00004  -0.00002
 104        3S         -0.00008   0.00067  -0.00016  -0.00000   0.00143
 105        3PX         0.00002  -0.00004   0.00001  -0.00009   0.00009
 106        3PY        -0.00002   0.00013  -0.00007   0.00012   0.00027
 107        3PZ         0.00005  -0.00039  -0.00000   0.00021  -0.00020
 108        4XX         0.00002   0.00001   0.00003   0.00002  -0.00016
 109        4YY         0.00004   0.00001   0.00003   0.00001  -0.00015
 110        4ZZ         0.00002  -0.00020   0.00003  -0.00002  -0.00015
 111        4XY        -0.00000   0.00001   0.00001  -0.00001  -0.00004
 112        4XZ        -0.00001  -0.00008   0.00000  -0.00003   0.00002
 113        4YZ         0.00001   0.00008   0.00000   0.00002   0.00001
 114 10  O  1S          0.00001   0.00001  -0.00004  -0.00003   0.00001
 115        2S         -0.00005   0.00003  -0.00021  -0.00016  -0.00007
 116        2PX         0.00002   0.00002  -0.00001  -0.00001  -0.00000
 117        2PY        -0.00013   0.00001  -0.00002  -0.00004  -0.00000
 118        2PZ         0.00012   0.00001  -0.00005  -0.00002   0.00001
 119        3S          0.00060  -0.00009   0.00127   0.00077   0.00038
 120        3PX        -0.00008  -0.00006  -0.00001   0.00006   0.00003
 121        3PY         0.00031  -0.00004   0.00040   0.00029   0.00004
 122        3PZ        -0.00027  -0.00001   0.00007   0.00002  -0.00006
 123        4XX         0.00004   0.00001  -0.00016  -0.00012  -0.00006
 124        4YY        -0.00011   0.00003  -0.00012  -0.00008  -0.00005
 125        4ZZ        -0.00007   0.00003  -0.00015  -0.00014  -0.00004
 126        4XY        -0.00001  -0.00001   0.00005   0.00001   0.00001
 127        4XZ         0.00000   0.00000   0.00002  -0.00000   0.00000
 128        4YZ         0.00015   0.00001  -0.00001  -0.00000  -0.00000
 129 11  O  1S         -0.00002  -0.00000   0.99273   0.00003   0.00000
 130        2S         -0.00005  -0.00001   0.02582  -0.00014   0.00001
 131        2PX        -0.00001  -0.00001  -0.00012  -0.00000  -0.00001
 132        2PY         0.00004  -0.00000  -0.00000   0.00002  -0.00001
 133        2PZ         0.00003   0.00000  -0.00089   0.00001  -0.00000
 134        3S          0.00081   0.00003   0.01231   0.00067  -0.00005
 135        3PX         0.00012   0.00004   0.00057   0.00015   0.00002
 136        3PY        -0.00024   0.00001  -0.00034  -0.00008   0.00003
 137        3PZ        -0.00026  -0.00001   0.00003  -0.00004   0.00001
 138        4XX        -0.00015  -0.00001  -0.00812  -0.00005   0.00001
 139        4YY        -0.00012  -0.00001  -0.00814  -0.00007  -0.00000
 140        4ZZ        -0.00003  -0.00001  -0.00811  -0.00005  -0.00000
 141        4XY         0.00008  -0.00000   0.00000  -0.00001  -0.00000
 142        4XZ         0.00010  -0.00000   0.00003   0.00001   0.00000
 143        4YZ        -0.00008   0.00000  -0.00003  -0.00003  -0.00000
 144 12  O  1S         -0.00000  -0.00002  -0.00000  -0.00001   0.99268
 145        2S         -0.00001  -0.00007  -0.00002  -0.00010   0.02591
 146        2PX         0.00001   0.00004   0.00001   0.00003  -0.00026
 147        2PY        -0.00000   0.00004   0.00000   0.00000  -0.00028
 148        2PZ         0.00000   0.00001   0.00000  -0.00000  -0.00047
 149        3S         -0.00000   0.00090   0.00007   0.00042   0.01248
 150        3PX        -0.00004  -0.00024  -0.00006  -0.00015  -0.00043
 151        3PY        -0.00000  -0.00029  -0.00002  -0.00004  -0.00023
 152        3PZ        -0.00001  -0.00007  -0.00000   0.00006   0.00035
 153        4XX         0.00000  -0.00018  -0.00001  -0.00006  -0.00824
 154        4YY        -0.00000  -0.00016  -0.00001  -0.00008  -0.00826
 155        4ZZ        -0.00001  -0.00000  -0.00002  -0.00010  -0.00826
 156        4XY         0.00001  -0.00012   0.00000   0.00000  -0.00002
 157        4XZ         0.00000   0.00004   0.00000  -0.00001   0.00000
 158        4YZ         0.00000   0.00003   0.00000   0.00001   0.00000
 159 13  O  1S          0.00000   0.00002  -0.00001   0.00000  -0.00006
 160        2S          0.00001  -0.00002  -0.00005   0.00001   0.00007
 161        2PX        -0.00002  -0.00002  -0.00001  -0.00000  -0.00001
 162        2PY         0.00000  -0.00011  -0.00001  -0.00001  -0.00000
 163        2PZ        -0.00001  -0.00013  -0.00000   0.00002   0.00003
 164        3S         -0.00000   0.00039   0.00025  -0.00002  -0.00029
 165        3PX         0.00007   0.00008   0.00003   0.00002   0.00011
 166        3PY        -0.00001   0.00025   0.00006   0.00006   0.00016
 167        3PZ         0.00002   0.00030   0.00003  -0.00007  -0.00002
 168        4XX        -0.00001   0.00007  -0.00004   0.00001   0.00005
 169        4YY         0.00002  -0.00005  -0.00002   0.00002   0.00007
 170        4ZZ         0.00002  -0.00007  -0.00003   0.00000   0.00007
 171        4XY         0.00001  -0.00000   0.00000   0.00001  -0.00003
 172        4XZ         0.00000  -0.00000  -0.00000   0.00000   0.00002
 173        4YZ        -0.00000  -0.00015  -0.00000   0.00000   0.00002
 174 14  O  1S          0.00002   0.00000  -0.00003  -0.00000  -0.00001
 175        2S          0.00000   0.00001  -0.00004   0.00000  -0.00001
 176        2PX        -0.00002   0.00002   0.00003  -0.00000  -0.00000
 177        2PY        -0.00002   0.00000  -0.00004  -0.00002   0.00001
 178        2PZ        -0.00017   0.00001   0.00001   0.00000  -0.00001
 179        3S          0.00031  -0.00002   0.00031   0.00001   0.00007
 180        3PX        -0.00001  -0.00004  -0.00009   0.00002   0.00004
 181        3PY         0.00003  -0.00001   0.00025   0.00008  -0.00006
 182        3PZ         0.00039  -0.00002   0.00019   0.00003   0.00003
 183        4XX         0.00007   0.00001  -0.00004   0.00001  -0.00001
 184        4YY         0.00008   0.00003  -0.00002   0.00002  -0.00000
 185        4ZZ        -0.00015   0.00001  -0.00000   0.00002  -0.00000
 186        4XY        -0.00001  -0.00000   0.00003  -0.00001  -0.00000
 187        4XZ        -0.00007  -0.00001   0.00002  -0.00000   0.00001
 188        4YZ        -0.00005  -0.00000   0.00000   0.00000  -0.00001
 189 15  H  1S          0.00001  -0.00001  -0.00003   0.00004  -0.00000
 190        2S         -0.00018  -0.00003  -0.00002   0.00010  -0.00001
 191        3PX         0.00001   0.00000  -0.00001  -0.00000  -0.00001
 192        3PY         0.00003  -0.00001  -0.00000  -0.00000   0.00000
 193        3PZ        -0.00001   0.00001   0.00001   0.00005   0.00001
 194 16  H  1S         -0.00011   0.00000   0.00031  -0.00006   0.00001
 195        2S         -0.00023  -0.00001  -0.00087   0.00009  -0.00007
 196        3PX         0.00001  -0.00000  -0.00010  -0.00000  -0.00001
 197        3PY         0.00000  -0.00000   0.00007   0.00001   0.00000
 198        3PZ        -0.00002   0.00000  -0.00010  -0.00001   0.00000
 199 17  H  1S         -0.00001  -0.00011  -0.00000  -0.00001   0.00043
 200        2S          0.00002  -0.00021   0.00005   0.00010  -0.00100
 201        3PX         0.00000  -0.00001  -0.00000   0.00000   0.00004
 202        3PY        -0.00000   0.00000  -0.00000  -0.00001   0.00003
 203        3PZ         0.00000  -0.00001   0.00001   0.00002  -0.00000
                           6         7         8         9        10
                           O         O         O         O         O
     Eigenvalues --   -19.03865 -19.03812 -19.03313 -19.02876 -10.17877
   1 1   C  1S          0.00003  -0.00002   0.00001  -0.00003   0.00240
   2        2S          0.00009  -0.00009   0.00004  -0.00012  -0.00016
   3        2PX        -0.00006   0.00007   0.00002  -0.00004  -0.00003
   4        2PY        -0.00006   0.00004  -0.00001   0.00006  -0.00007
   5        2PZ        -0.00001  -0.00002  -0.00002   0.00001  -0.00004
   6        3S         -0.00026   0.00009  -0.00020   0.00054   0.00569
   7        3PX         0.00044  -0.00045  -0.00030   0.00036   0.00023
   8        3PY         0.00043  -0.00028   0.00004  -0.00032  -0.00107
   9        3PZ        -0.00000  -0.00012  -0.00015   0.00029   0.00200
  10        4XX         0.00007  -0.00003   0.00001  -0.00008  -0.00010
  11        4YY         0.00004  -0.00003   0.00002  -0.00007  -0.00034
  12        4ZZ         0.00004  -0.00002  -0.00001  -0.00004  -0.00023
  13        4XY         0.00001   0.00001   0.00001   0.00001   0.00001
  14        4XZ         0.00001   0.00001  -0.00002   0.00000   0.00001
  15        4YZ         0.00001   0.00001   0.00001  -0.00003   0.00017
  16 2   H  1S          0.00008   0.00001   0.00004  -0.00008  -0.00006
  17        2S         -0.00009  -0.00008  -0.00017   0.00030  -0.00015
  18        3PX        -0.00002   0.00001   0.00001  -0.00001  -0.00001
  19        3PY        -0.00001  -0.00002  -0.00000   0.00001   0.00002
  20        3PZ        -0.00001  -0.00002  -0.00001   0.00002   0.00000
  21 3   H  1S         -0.00006   0.00005   0.00001  -0.00003  -0.00027
  22        2S         -0.00027   0.00029   0.00021  -0.00018  -0.00059
  23        3PX         0.00003  -0.00001   0.00000  -0.00002   0.00001
  24        3PY         0.00000  -0.00002  -0.00001   0.00003  -0.00003
  25        3PZ         0.00001  -0.00000  -0.00000  -0.00001   0.00000
  26 4   C  1S         -0.00001  -0.00003  -0.00003  -0.00002   0.99326
  27        2S         -0.00011  -0.00017  -0.00018  -0.00010   0.04996
  28        2PX        -0.00001   0.00001  -0.00003   0.00002  -0.00002
  29        2PY         0.00001  -0.00002  -0.00002   0.00003   0.00053
  30        2PZ        -0.00005   0.00004  -0.00001   0.00006   0.00060
  31        3S          0.00066   0.00097   0.00118   0.00033  -0.02054
  32        3PX        -0.00021  -0.00059   0.00063   0.00004  -0.00016
  33        3PY        -0.00024  -0.00010   0.00017  -0.00078  -0.00167
  34        3PZ         0.00010  -0.00028   0.00059  -0.00043  -0.00008
  35        4XX         0.00001   0.00001  -0.00002   0.00002  -0.00863
  36        4YY         0.00003  -0.00002  -0.00001  -0.00000  -0.00858
  37        4ZZ        -0.00001  -0.00002   0.00002  -0.00005  -0.00842
  38        4XY         0.00002   0.00003  -0.00002  -0.00004  -0.00002
  39        4XZ         0.00000   0.00002  -0.00001  -0.00001   0.00001
  40        4YZ        -0.00001   0.00002   0.00003   0.00002   0.00001
  41 5   O  1S         -0.00004   0.00002   0.00001  -0.00000  -0.00014
  42        2S         -0.00011   0.00005   0.00002  -0.00001  -0.00038
  43        2PX         0.00003  -0.00003  -0.00004   0.00003  -0.00000
  44        2PY         0.00003  -0.00003  -0.00001  -0.00001   0.00004
  45        2PZ         0.00000  -0.00001  -0.00004  -0.00001   0.00012
  46        3S          0.00037  -0.00015  -0.00021   0.00025   0.00386
  47        3PX        -0.00015   0.00016   0.00019  -0.00010  -0.00001
  48        3PY        -0.00011   0.00008   0.00004   0.00003  -0.00011
  49        3PZ        -0.00002   0.00008   0.00037  -0.00006  -0.00089
  50        4XX        -0.00009   0.00006   0.00004   0.00000  -0.00015
  51        4YY        -0.00008   0.00003   0.00000  -0.00001  -0.00031
  52        4ZZ        -0.00010   0.00003  -0.00007   0.00003  -0.00071
  53        4XY         0.00004  -0.00002  -0.00001   0.00001   0.00001
  54        4XZ        -0.00001  -0.00002   0.00000   0.00001   0.00000
  55        4YZ         0.00000  -0.00001  -0.00002  -0.00001  -0.00029
  56 6   H  1S         -0.00002   0.00003  -0.00005   0.00004   0.00006
  57        2S          0.00010  -0.00016  -0.00035  -0.00024  -0.00028
  58        3PX        -0.00001   0.00001  -0.00010  -0.00000  -0.00003
  59        3PY         0.00002  -0.00002   0.00007  -0.00000  -0.00007
  60        3PZ        -0.00001   0.00001   0.00006   0.00002  -0.00013
  61 7   P  1S         -0.00000  -0.00000   0.00001   0.00001   0.00000
  62        2S         -0.00002  -0.00003  -0.00007  -0.00007  -0.00010
  63        2PX         0.00000  -0.00000   0.00000   0.00001   0.00002
  64        2PY         0.00000  -0.00000   0.00001  -0.00000  -0.00004
  65        2PZ        -0.00000  -0.00001  -0.00002   0.00002  -0.00001
  66        3S         -0.00009  -0.00010   0.00063   0.00074  -0.00018
  67        3PX        -0.00001   0.00005  -0.00003  -0.00006  -0.00043
  68        3PY         0.00000   0.00002  -0.00003  -0.00000   0.00035
  69        3PZ         0.00002   0.00009   0.00017  -0.00021   0.00005
  70        4S          0.00017   0.00060  -0.00307  -0.00308   0.00476
  71        4PX        -0.00010  -0.00022   0.00002   0.00047  -0.00098
  72        4PY        -0.00003   0.00009   0.00010   0.00092   0.00205
  73        4PZ        -0.00017  -0.00010  -0.00213   0.00208   0.00036
  74        5XX         0.00002  -0.00003  -0.00018  -0.00024   0.00003
  75        5YY        -0.00002  -0.00004  -0.00026  -0.00014   0.00006
  76        5ZZ        -0.00003  -0.00004  -0.00005  -0.00016   0.00002
  77        5XY         0.00003  -0.00001   0.00001  -0.00000  -0.00004
  78        5XZ        -0.00003  -0.00001   0.00007   0.00001   0.00003
  79        5YZ        -0.00001   0.00001  -0.00012   0.00013   0.00008
  80 8   P  1S          0.00001   0.00002  -0.00000  -0.00000   0.00000
  81        2S         -0.00009  -0.00003  -0.00003  -0.00001  -0.00010
  82        2PX        -0.00001  -0.00001   0.00000  -0.00000  -0.00003
  83        2PY         0.00001  -0.00001  -0.00000   0.00000  -0.00002
  84        2PZ        -0.00002   0.00002   0.00001   0.00000  -0.00001
  85        3S          0.00057   0.00095  -0.00007  -0.00005  -0.00011
  86        3PX         0.00009   0.00008  -0.00004  -0.00001   0.00048
  87        3PY        -0.00013   0.00008   0.00002   0.00001   0.00024
  88        3PZ         0.00017  -0.00022  -0.00008  -0.00002   0.00008
  89        4S         -0.00240  -0.00405   0.00067  -0.00040   0.00441
  90        4PX        -0.00052  -0.00001   0.00034  -0.00008   0.00095
  91        4PY         0.00161  -0.00076  -0.00005  -0.00014   0.00184
  92        4PZ        -0.00195   0.00230   0.00019   0.00028   0.00029
  93        5XX        -0.00022  -0.00020  -0.00002   0.00001  -0.00004
  94        5YY        -0.00014  -0.00027  -0.00003  -0.00000  -0.00004
  95        5ZZ        -0.00017  -0.00005  -0.00003  -0.00003   0.00006
  96        5XY        -0.00003   0.00001   0.00002  -0.00003   0.00008
  97        5XZ        -0.00000   0.00003  -0.00003  -0.00003   0.00003
  98        5YZ        -0.00012   0.00003  -0.00003   0.00002   0.00000
  99 9   O  1S          0.00004  -0.00006   0.99273   0.00053   0.00005
 100        2S         -0.00005   0.00003   0.02566   0.00003   0.00020
 101        2PX         0.00001  -0.00002  -0.00018   0.00002   0.00004
 102        2PY         0.00001  -0.00001   0.00016   0.00005   0.00003
 103        2PZ        -0.00000  -0.00001  -0.00062   0.00001   0.00002
 104        3S          0.00021  -0.00015   0.01254  -0.00015  -0.00128
 105        3PX        -0.00004   0.00005  -0.00024  -0.00010  -0.00001
 106        3PY        -0.00001   0.00002   0.00027  -0.00023  -0.00033
 107        3PZ        -0.00003   0.00007  -0.00042  -0.00025   0.00016
 108        4XX        -0.00003   0.00002  -0.00816   0.00004   0.00016
 109        4YY        -0.00005   0.00003  -0.00814  -0.00001   0.00009
 110        4ZZ        -0.00003   0.00003  -0.00816   0.00009   0.00013
 111        4XY         0.00001  -0.00001  -0.00001  -0.00001  -0.00009
 112        4XZ         0.00000  -0.00001  -0.00000   0.00001   0.00001
 113        4YZ        -0.00001   0.00001  -0.00000   0.00000   0.00004
 114 10  O  1S          0.99272   0.00582  -0.00005  -0.00007   0.00003
 115        2S          0.02562   0.00018   0.00001  -0.00005   0.00015
 116        2PX        -0.00005   0.00000  -0.00003  -0.00004   0.00001
 117        2PY         0.00053   0.00004   0.00000   0.00001   0.00002
 118        2PZ        -0.00047   0.00005  -0.00000   0.00003   0.00003
 119        3S          0.01259  -0.00008  -0.00016   0.00017  -0.00084
 120        3PX         0.00009  -0.00003   0.00009   0.00011  -0.00016
 121        3PY         0.00045  -0.00001  -0.00003   0.00001  -0.00036
 122        3PZ        -0.00025  -0.00040   0.00002  -0.00012  -0.00003
 123        4XX        -0.00815   0.00001   0.00002  -0.00004   0.00010
 124        4YY        -0.00813   0.00000  -0.00001  -0.00005   0.00005
 125        4ZZ        -0.00814   0.00003  -0.00002  -0.00004   0.00010
 126        4XY         0.00000  -0.00001   0.00001  -0.00000   0.00004
 127        4XZ        -0.00000  -0.00001   0.00000  -0.00002   0.00004
 128        4YZ         0.00000  -0.00005  -0.00001  -0.00002  -0.00000
 129 11  O  1S         -0.00004  -0.00001   0.00001  -0.00001   0.00002
 130        2S         -0.00009  -0.00015   0.00002  -0.00003   0.00012
 131        2PX         0.00003  -0.00002   0.00001  -0.00002  -0.00004
 132        2PY         0.00000   0.00000  -0.00000  -0.00000  -0.00004
 133        2PZ        -0.00004   0.00004   0.00001   0.00001   0.00003
 134        3S          0.00058   0.00083  -0.00011   0.00013  -0.00091
 135        3PX         0.00002   0.00025  -0.00006   0.00007  -0.00023
 136        3PY        -0.00018  -0.00012   0.00002   0.00001   0.00027
 137        3PZ         0.00024  -0.00033  -0.00004  -0.00006  -0.00009
 138        4XX        -0.00006  -0.00005   0.00002  -0.00002   0.00012
 139        4YY        -0.00010  -0.00008   0.00002  -0.00003   0.00003
 140        4ZZ        -0.00010  -0.00010   0.00003  -0.00002  -0.00001
 141        4XY         0.00000   0.00000   0.00000   0.00001   0.00004
 142        4XZ         0.00002  -0.00003   0.00000  -0.00001   0.00001
 143        4YZ         0.00003  -0.00001  -0.00000   0.00000   0.00002
 144 12  O  1S         -0.00003   0.00001  -0.00008   0.00008   0.00006
 145        2S         -0.00001   0.00002  -0.00014  -0.00004   0.00028
 146        2PX         0.00000  -0.00001  -0.00002   0.00000  -0.00000
 147        2PY        -0.00000  -0.00000  -0.00002   0.00002  -0.00001
 148        2PZ        -0.00001  -0.00000  -0.00001   0.00003   0.00004
 149        3S          0.00006  -0.00011   0.00087   0.00030  -0.00152
 150        3PX         0.00001   0.00004  -0.00005  -0.00015   0.00039
 151        3PY         0.00002   0.00002  -0.00004  -0.00025   0.00019
 152        3PZ         0.00003   0.00000   0.00023  -0.00017  -0.00047
 153        4XX        -0.00002   0.00002  -0.00009   0.00003   0.00017
 154        4YY        -0.00002   0.00001  -0.00011   0.00000   0.00017
 155        4ZZ        -0.00002   0.00001  -0.00017  -0.00001   0.00016
 156        4XY        -0.00001  -0.00000  -0.00001   0.00000  -0.00004
 157        4XZ        -0.00000  -0.00000  -0.00002   0.00001  -0.00000
 158        4YZ        -0.00000  -0.00000   0.00004  -0.00003   0.00001
 159 13  O  1S          0.00004   0.00005  -0.00052   0.99273   0.00003
 160        2S         -0.00003  -0.00004  -0.00002   0.02563   0.00015
 161        2PX         0.00003   0.00004  -0.00000   0.00004  -0.00005
 162        2PY         0.00001  -0.00000   0.00005   0.00042   0.00003
 163        2PZ        -0.00002  -0.00001  -0.00004   0.00054  -0.00002
 164        3S          0.00008   0.00013   0.00001   0.01267  -0.00074
 165        3PX        -0.00010  -0.00014   0.00003  -0.00006   0.00028
 166        3PY        -0.00003   0.00001  -0.00011   0.00051  -0.00040
 167        3PZ         0.00009   0.00002   0.00041   0.00030  -0.00007
 168        4XX        -0.00002  -0.00002   0.00003  -0.00817   0.00011
 169        4YY        -0.00004  -0.00006   0.00001  -0.00815   0.00004
 170        4ZZ        -0.00003  -0.00006   0.00008  -0.00818   0.00008
 171        4XY         0.00001  -0.00001   0.00002  -0.00000  -0.00000
 172        4XZ        -0.00002  -0.00000  -0.00000  -0.00000   0.00004
 173        4YZ         0.00002   0.00002   0.00005   0.00001  -0.00002
 174 14  O  1S         -0.00578   0.99271   0.00008  -0.00009   0.00005
 175        2S         -0.00005   0.02556   0.00004  -0.00013   0.00023
 176        2PX        -0.00001   0.00009   0.00002  -0.00002   0.00001
 177        2PY         0.00007   0.00007  -0.00001   0.00000   0.00005
 178        2PZ        -0.00000   0.00068   0.00001  -0.00000  -0.00001
 179        3S         -0.00059   0.01291  -0.00016   0.00059  -0.00122
 180        3PX         0.00006   0.00021  -0.00009   0.00009  -0.00019
 181        3PY        -0.00038   0.00028   0.00004   0.00002  -0.00037
 182        3PZ         0.00017   0.00056  -0.00005   0.00009  -0.00022
 183        4XX         0.00015  -0.00818   0.00003  -0.00007   0.00015
 184        4YY         0.00010  -0.00817   0.00003  -0.00010   0.00011
 185        4ZZ         0.00019  -0.00818   0.00003  -0.00008   0.00013
 186        4XY        -0.00001   0.00000   0.00001  -0.00001   0.00003
 187        4XZ         0.00001   0.00000  -0.00001   0.00000  -0.00002
 188        4YZ        -0.00002   0.00002   0.00000   0.00001  -0.00004
 189 15  H  1S          0.00007  -0.00008  -0.00002   0.00002  -0.00020
 190        2S         -0.00005   0.00013  -0.00011   0.00024  -0.00051
 191        3PX        -0.00002   0.00001  -0.00000   0.00002  -0.00002
 192        3PY        -0.00001  -0.00001   0.00001  -0.00002  -0.00004
 193        3PZ        -0.00000  -0.00000   0.00001  -0.00001   0.00001
 194 16  H  1S          0.00007  -0.00008  -0.00002  -0.00002   0.00002
 195        2S         -0.00032   0.00039   0.00003   0.00005  -0.00056
 196        3PX        -0.00001   0.00001  -0.00000   0.00000  -0.00008
 197        3PY         0.00003  -0.00000   0.00000  -0.00001   0.00001
 198        3PZ         0.00004  -0.00002  -0.00001   0.00000   0.00002
 199 17  H  1S          0.00001   0.00001   0.00007  -0.00006  -0.00001
 200        2S         -0.00003  -0.00006  -0.00026   0.00036  -0.00059
 201        3PX         0.00000   0.00001   0.00002  -0.00004   0.00005
 202        3PY         0.00000   0.00000   0.00003  -0.00003   0.00002
 203        3PZ         0.00001  -0.00000   0.00003  -0.00002  -0.00006
                          11        12        13        14        15
                           O         O         O         O         O
     Eigenvalues --   -10.13523  -6.57061  -6.55811  -4.73577  -4.73269
   1 1   C  1S          0.99296  -0.00003  -0.00002  -0.00004  -0.00003
   2        2S          0.05012  -0.00024  -0.00020  -0.00011  -0.00001
   3        2PX        -0.00014   0.00009  -0.00010   0.00004   0.00008
   4        2PY        -0.00008  -0.00001  -0.00004   0.00014   0.00017
   5        2PZ         0.00000   0.00007   0.00005  -0.00001  -0.00011
   6        3S         -0.01735   0.00104   0.00087  -0.00015  -0.00149
   7        3PX         0.00035  -0.00148   0.00159  -0.00017  -0.00065
   8        3PY         0.00147  -0.00163  -0.00113  -0.00065   0.00119
   9        3PZ        -0.00092   0.00052   0.00049  -0.00115  -0.00034
  10        4XX        -0.00885  -0.00006  -0.00001  -0.00013  -0.00009
  11        4YY        -0.00902   0.00010   0.00010   0.00005  -0.00027
  12        4ZZ        -0.00893  -0.00002  -0.00001  -0.00018  -0.00004
  13        4XY         0.00000   0.00008  -0.00010  -0.00006  -0.00005
  14        4XZ        -0.00000  -0.00010   0.00011   0.00005  -0.00003
  15        4YZ         0.00016  -0.00008  -0.00006   0.00007   0.00003
  16 2   H  1S         -0.00005  -0.00020  -0.00015  -0.00020   0.00014
  17        2S          0.00241   0.00060   0.00045  -0.00023  -0.00063
  18        3PX        -0.00001   0.00002  -0.00004  -0.00002   0.00010
  19        3PY        -0.00014  -0.00001   0.00001  -0.00004   0.00007
  20        3PZ        -0.00020   0.00006   0.00004   0.00004  -0.00008
  21 3   H  1S         -0.00012   0.00013  -0.00022   0.00005   0.00005
  22        2S          0.00228   0.00086   0.00018   0.00038   0.00018
  23        3PX         0.00019  -0.00002  -0.00002  -0.00007  -0.00001
  24        3PY         0.00008   0.00002  -0.00004   0.00003  -0.00006
  25        3PZ         0.00008  -0.00006   0.00005   0.00003  -0.00004
  26 4   C  1S         -0.00261   0.00012   0.00015  -0.00002   0.00008
  27        2S         -0.00017   0.00083   0.00101   0.00011   0.00063
  28        2PX         0.00000   0.00007  -0.00007   0.00023   0.00003
  29        2PY        -0.00010  -0.00007  -0.00008  -0.00028  -0.00025
  30        2PZ         0.00002  -0.00007  -0.00004  -0.00011   0.00034
  31        3S          0.00345  -0.00441  -0.00514   0.00067  -0.00291
  32        3PX         0.00018   0.00169  -0.00189  -0.00162   0.00070
  33        3PY         0.00200   0.00060   0.00083   0.00291   0.00234
  34        3PZ        -0.00132   0.00000  -0.00031   0.00167  -0.00498
  35        4XX        -0.00009   0.00009   0.00007   0.00007   0.00005
  36        4YY        -0.00028   0.00018   0.00021  -0.00023   0.00009
  37        4ZZ        -0.00018   0.00013   0.00016   0.00018  -0.00002
  38        4XY         0.00000  -0.00011   0.00014  -0.00015  -0.00018
  39        4XZ        -0.00000   0.00000  -0.00000  -0.00016   0.00034
  40        4YZ         0.00011   0.00001  -0.00004  -0.00005  -0.00010
  41 5   O  1S         -0.00001  -0.00007  -0.00004   0.00003  -0.00007
  42        2S         -0.00006  -0.00036  -0.00024   0.00018  -0.00047
  43        2PX        -0.00001   0.00011  -0.00004  -0.00001  -0.00004
  44        2PY        -0.00004   0.00003  -0.00002   0.00014   0.00001
  45        2PZ         0.00007  -0.00000   0.00003  -0.00001  -0.00003
  46        3S         -0.00016   0.00188   0.00158  -0.00156   0.00327
  47        3PX        -0.00004  -0.00101   0.00054   0.00039  -0.00018
  48        3PY         0.00021  -0.00045  -0.00038  -0.00057  -0.00101
  49        3PZ        -0.00024  -0.00076  -0.00092   0.00084  -0.00101
  50        4XX        -0.00016  -0.00019  -0.00011   0.00003  -0.00020
  51        4YY         0.00000  -0.00018  -0.00008   0.00023  -0.00002
  52        4ZZ         0.00007  -0.00018  -0.00006  -0.00005  -0.00012
  53        4XY         0.00002   0.00008   0.00001  -0.00002  -0.00002
  54        4XZ        -0.00001   0.00011  -0.00011  -0.00004   0.00005
  55        4YZ        -0.00006   0.00010   0.00008   0.00002   0.00014
  56 6   H  1S          0.00010  -0.00008  -0.00004  -0.00024  -0.00024
  57        2S          0.00019   0.00069   0.00108  -0.00021   0.00051
  58        3PX        -0.00003  -0.00005   0.00002   0.00002  -0.00006
  59        3PY         0.00001   0.00007  -0.00007  -0.00002  -0.00007
  60        3PZ        -0.00002  -0.00008  -0.00007   0.00002  -0.00011
  61 7   P  1S         -0.00000   0.00001  -0.27421  -0.00001  -0.00000
  62        2S         -0.00006  -0.00015   1.02400  -0.00006  -0.00002
  63        2PX        -0.00000   0.00003   0.00183  -0.00028  -0.00026
  64        2PY         0.00002  -0.00000   0.00067   0.00014  -0.00007
  65        2PZ         0.00001  -0.00000  -0.00028  -0.00007   0.00043
  66        3S         -0.00014  -0.00068   0.07501  -0.00068  -0.00020
  67        3PX         0.00005  -0.00016  -0.00038  -0.00055  -0.00033
  68        3PY        -0.00028   0.00006   0.00059   0.00036   0.00004
  69        3PZ        -0.00007   0.00001   0.00011  -0.00006   0.00025
  70        4S          0.00095   0.00224  -0.01182   0.00334   0.00118
  71        4PX        -0.00036  -0.00155   0.00214  -0.00156  -0.00116
  72        4PY         0.00024  -0.00068  -0.00079  -0.00051  -0.00070
  73        4PZ        -0.00036  -0.00022   0.00042  -0.00046   0.00207
  74        5XX        -0.00011   0.00035  -0.01730   0.00055   0.00024
  75        5YY        -0.00011  -0.00004  -0.01714   0.00008  -0.00010
  76        5ZZ        -0.00006   0.00003  -0.01684   0.00008   0.00008
  77        5XY         0.00002  -0.00004   0.00015  -0.00009  -0.00008
  78        5XZ         0.00000  -0.00004  -0.00008   0.00000  -0.00023
  79        5YZ         0.00002   0.00002   0.00007  -0.00003   0.00012
  80 8   P  1S         -0.00001  -0.27420  -0.00003  -0.00112  -0.00006
  81        2S         -0.00012   1.02401  -0.00004   0.00449   0.00016
  82        2PX         0.00002  -0.00377  -0.00003   0.68690   0.25696
  83        2PY        -0.00001   0.00139  -0.00001  -0.62001  -0.24763
  84        2PZ         0.00000   0.00123  -0.00001  -0.35683   0.92506
  85        3S         -0.00051   0.07524  -0.00079   0.00008  -0.00041
  86        3PX        -0.00021   0.00004   0.00012   0.02113   0.00825
  87        3PY        -0.00004   0.00078   0.00007  -0.01922  -0.00815
  88        3PZ        -0.00001   0.00019   0.00004  -0.01079   0.02967
  89        4S          0.00209  -0.01287   0.00283  -0.00372   0.00150
  90        4PX         0.00004  -0.00194   0.00181  -0.00558  -0.00184
  91        4PY         0.00148  -0.00181  -0.00056   0.00332   0.00202
  92        4PZ        -0.00046   0.00066  -0.00026   0.00164  -0.00311
  93        5XX        -0.00010  -0.01727   0.00036  -0.00065   0.00003
  94        5YY        -0.00007  -0.01709  -0.00008  -0.00014   0.00103
  95        5ZZ        -0.00006  -0.01708   0.00003   0.00127  -0.00090
  96        5XY        -0.00005  -0.00025   0.00006   0.00171   0.00025
  97        5XZ        -0.00002   0.00005   0.00004   0.00092  -0.00066
  98        5YZ        -0.00001  -0.00008  -0.00000  -0.00085  -0.00110
  99 9   O  1S         -0.00001   0.00002  -0.00012  -0.00000   0.00006
 100        2S         -0.00002   0.00010   0.00063   0.00001   0.00028
 101        2PX         0.00000  -0.00001  -0.00011   0.00003   0.00006
 102        2PY         0.00002  -0.00002   0.00019  -0.00003  -0.00003
 103        2PZ         0.00000   0.00000  -0.00066  -0.00001   0.00002
 104        3S          0.00011  -0.00053  -0.00354  -0.00018  -0.00169
 105        3PX         0.00001   0.00024   0.00025   0.00003  -0.00001
 106        3PY        -0.00005   0.00010  -0.00065   0.00016   0.00009
 107        3PZ        -0.00003   0.00001   0.00230   0.00007   0.00004
 108        4XX        -0.00001   0.00006   0.00025   0.00001   0.00020
 109        4YY        -0.00003   0.00002   0.00023  -0.00005   0.00011
 110        4ZZ        -0.00001   0.00007   0.00082  -0.00000   0.00018
 111        4XY        -0.00000   0.00002  -0.00003  -0.00001  -0.00003
 112        4XZ         0.00001  -0.00001   0.00023   0.00000  -0.00001
 113        4YZ        -0.00002  -0.00005  -0.00019  -0.00004  -0.00004
 114 10  O  1S         -0.00004  -0.00015   0.00001  -0.00028  -0.00052
 115        2S         -0.00015   0.00060   0.00006  -0.00008   0.00119
 116        2PX        -0.00001  -0.00008  -0.00006   0.00005  -0.00000
 117        2PY         0.00001   0.00053  -0.00003   0.00015   0.00105
 118        2PZ         0.00002  -0.00053  -0.00004  -0.00031  -0.00068
 119        3S          0.00073  -0.00337  -0.00060   0.00067  -0.00522
 120        3PX         0.00004   0.00043   0.00010  -0.00031  -0.00001
 121        3PY        -0.00002  -0.00162   0.00007  -0.00013  -0.00333
 122        3PZ        -0.00012   0.00166   0.00022   0.00108   0.00162
 123        4XX        -0.00013   0.00011   0.00008  -0.00027   0.00005
 124        4YY        -0.00012   0.00061   0.00000   0.00009   0.00046
 125        4ZZ        -0.00012   0.00048  -0.00004  -0.00043   0.00072
 126        4XY         0.00002   0.00003   0.00001  -0.00022   0.00001
 127        4XZ        -0.00000  -0.00001   0.00001   0.00014   0.00006
 128        4YZ        -0.00002  -0.00045  -0.00005  -0.00007  -0.00063
 129 11  O  1S          0.00006   0.00001   0.00001   0.00010  -0.00005
 130        2S          0.00028   0.00047   0.00003  -0.00141  -0.00029
 131        2PX         0.00006   0.00001   0.00006  -0.00035   0.00008
 132        2PY        -0.00001  -0.00017   0.00003   0.00031  -0.00011
 133        2PZ        -0.00001  -0.00012  -0.00001   0.00023   0.00022
 134        3S         -0.00126  -0.00305  -0.00004   0.00626   0.00123
 135        3PX        -0.00054  -0.00055  -0.00027   0.00283  -0.00088
 136        3PY         0.00014   0.00141  -0.00013  -0.00256   0.00088
 137        3PZ         0.00003   0.00148   0.00003  -0.00236  -0.00202
 138        4XX         0.00016   0.00038   0.00001  -0.00041  -0.00038
 139        4YY         0.00020   0.00029   0.00004  -0.00047  -0.00044
 140        4ZZ         0.00023   0.00005   0.00004  -0.00027   0.00040
 141        4XY        -0.00002   0.00011   0.00001  -0.00045   0.00013
 142        4XZ         0.00005  -0.00020   0.00001   0.00007  -0.00019
 143        4YZ        -0.00004   0.00010   0.00001  -0.00002   0.00021
 144 12  O  1S         -0.00002  -0.00000   0.00005   0.00000  -0.00003
 145        2S         -0.00006  -0.00002   0.00061   0.00002  -0.00012
 146        2PX         0.00005  -0.00007  -0.00011  -0.00005   0.00001
 147        2PY         0.00001   0.00002  -0.00018   0.00000   0.00005
 148        2PZ         0.00003  -0.00002  -0.00003  -0.00002   0.00003
 149        3S          0.00017   0.00023  -0.00376   0.00001   0.00057
 150        3PX        -0.00008   0.00026   0.00123   0.00027  -0.00013
 151        3PY        -0.00004  -0.00008   0.00166   0.00004  -0.00030
 152        3PZ        -0.00014   0.00011   0.00037   0.00005  -0.00006
 153        4XX        -0.00005  -0.00003   0.00056   0.00000  -0.00006
 154        4YY        -0.00009  -0.00000   0.00048   0.00000  -0.00005
 155        4ZZ        -0.00003  -0.00000   0.00006   0.00003  -0.00010
 156        4XY         0.00001  -0.00001   0.00003  -0.00003   0.00002
 157        4XZ         0.00002  -0.00001  -0.00006  -0.00001   0.00002
 158        4YZ        -0.00003  -0.00001   0.00000  -0.00001   0.00002
 159 13  O  1S          0.00006   0.00001  -0.00020  -0.00001  -0.00000
 160        2S          0.00023   0.00008   0.00043  -0.00002  -0.00004
 161        2PX        -0.00003   0.00008   0.00008   0.00015  -0.00006
 162        2PY         0.00007  -0.00003   0.00045  -0.00002  -0.00002
 163        2PZ         0.00000   0.00004   0.00059   0.00002   0.00006
 164        3S         -0.00109  -0.00069  -0.00240  -0.00040   0.00027
 165        3PX         0.00013  -0.00020  -0.00044  -0.00053   0.00030
 166        3PY        -0.00033   0.00005  -0.00136   0.00003   0.00022
 167        3PZ        -0.00010  -0.00021  -0.00184  -0.00011  -0.00031
 168        4XX         0.00020   0.00010  -0.00003   0.00005   0.00001
 169        4YY         0.00016  -0.00000   0.00037  -0.00011   0.00003
 170        4ZZ         0.00020  -0.00002   0.00044  -0.00011  -0.00005
 171        4XY         0.00002  -0.00002  -0.00000  -0.00003   0.00003
 172        4XZ         0.00000   0.00001   0.00001  -0.00001  -0.00000
 173        4YZ        -0.00003   0.00005   0.00044   0.00006   0.00000
 174 14  O  1S          0.00005  -0.00023   0.00004  -0.00029   0.00058
 175        2S          0.00022   0.00023   0.00017   0.00005  -0.00135
 176        2PX         0.00001   0.00005  -0.00000   0.00012  -0.00026
 177        2PY         0.00002   0.00005  -0.00003  -0.00004  -0.00027
 178        2PZ        -0.00001   0.00071   0.00001   0.00038  -0.00136
 179        3S         -0.00114  -0.00152  -0.00094  -0.00005   0.00586
 180        3PX        -0.00008   0.00008  -0.00019  -0.00053   0.00072
 181        3PY        -0.00027  -0.00001   0.00011   0.00044   0.00098
 182        3PZ        -0.00010  -0.00220  -0.00015  -0.00099   0.00395
 183        4XX         0.00011  -0.00006   0.00011  -0.00029  -0.00018
 184        4YY         0.00013  -0.00011   0.00005  -0.00015  -0.00009
 185        4ZZ         0.00016   0.00059   0.00011   0.00009  -0.00118
 186        4XY         0.00000   0.00003   0.00000  -0.00001  -0.00006
 187        4XZ         0.00001   0.00024  -0.00002  -0.00022  -0.00034
 188        4YZ        -0.00003   0.00013   0.00002   0.00032  -0.00002
 189 15  H  1S         -0.00009  -0.00021   0.00013   0.00012  -0.00006
 190        2S          0.00251   0.00050   0.00069  -0.00053  -0.00073
 191        3PX        -0.00021   0.00004   0.00000   0.00004   0.00001
 192        3PY         0.00009  -0.00006   0.00002   0.00015   0.00005
 193        3PZ         0.00008   0.00005  -0.00006  -0.00001   0.00001
 194 16  H  1S         -0.00001   0.00057  -0.00002  -0.00078  -0.00067
 195        2S         -0.00058   0.00136   0.00015  -0.00129  -0.00192
 196        3PX        -0.00006   0.00016   0.00002  -0.00024  -0.00011
 197        3PY         0.00004  -0.00018   0.00001   0.00023   0.00007
 198        3PZ        -0.00005   0.00006  -0.00002  -0.00001  -0.00008
 199 17  H  1S         -0.00010   0.00005   0.00060   0.00006  -0.00013
 200        2S         -0.00016  -0.00005   0.00111  -0.00026   0.00071
 201        3PX         0.00004  -0.00002  -0.00012   0.00000  -0.00003
 202        3PY         0.00001   0.00001  -0.00016   0.00001  -0.00001
 203        3PZ        -0.00002  -0.00001   0.00015  -0.00002   0.00004
                          16        17        18        19        20
                           O         O         O         O         O
     Eigenvalues --    -4.73219  -4.72245  -4.72055  -4.72026  -0.98289
   1 1   C  1S         -0.00001  -0.00004   0.00001  -0.00005  -0.01058
   2        2S         -0.00029  -0.00033   0.00019  -0.00034   0.01660
   3        2PX        -0.00005   0.00001   0.00003  -0.00000  -0.00045
   4        2PY        -0.00021  -0.00018   0.00013  -0.00008  -0.00739
   5        2PZ         0.00013   0.00010  -0.00008   0.00009   0.00984
   6        3S          0.00217   0.00351  -0.00140   0.00176   0.01771
   7        3PX        -0.00139   0.00031  -0.00111   0.00165  -0.00752
   8        3PY        -0.00173  -0.00128   0.00178  -0.00081  -0.01224
   9        3PZ         0.00112   0.00165   0.00003   0.00130   0.00677
  10        4XX         0.00007   0.00001  -0.00004  -0.00000  -0.00086
  11        4YY         0.00025   0.00002  -0.00032  -0.00003   0.00029
  12        4ZZ         0.00009   0.00008   0.00005   0.00008   0.00074
  13        4XY         0.00022  -0.00008   0.00014  -0.00017   0.00024
  14        4XZ        -0.00018   0.00006  -0.00007   0.00020  -0.00020
  15        4YZ        -0.00012  -0.00014   0.00002  -0.00012  -0.00230
  16 2   H  1S         -0.00015  -0.00005   0.00021  -0.00007   0.00264
  17        2S          0.00071   0.00033  -0.00038   0.00042   0.00280
  18        3PX         0.00001  -0.00000  -0.00002  -0.00009   0.00015
  19        3PY        -0.00002   0.00003   0.00006   0.00005   0.00034
  20        3PZ         0.00005  -0.00000  -0.00008  -0.00001   0.00039
  21 3   H  1S          0.00004  -0.00024   0.00014  -0.00030   0.00440
  22        2S          0.00046   0.00056  -0.00051   0.00013   0.00886
  23        3PX         0.00005   0.00001   0.00003  -0.00003  -0.00061
  24        3PY         0.00008  -0.00010   0.00002  -0.00009  -0.00066
  25        3PZ        -0.00008  -0.00001  -0.00004   0.00005   0.00013
  26 4   C  1S          0.00010   0.00005  -0.00003   0.00015  -0.04209
  27        2S          0.00179  -0.00002  -0.00088   0.00183   0.07326
  28        2PX        -0.00006   0.00026   0.00013   0.00017  -0.00693
  29        2PY         0.00012   0.00044   0.00004   0.00015   0.00930
  30        2PZ        -0.00016  -0.00008   0.00029   0.00011   0.03908
  31        3S         -0.00740  -0.00162   0.00295  -0.00820   0.04923
  32        3PX         0.00455  -0.00144   0.00124  -0.00523  -0.00719
  33        3PY        -0.00006  -0.00462  -0.00139  -0.00065  -0.02111
  34        3PZ         0.00032   0.00185  -0.00359  -0.00286  -0.00533
[...]
  32         O                -0.418602          1.750047
  33         O                -0.390273          2.023940
  34         O                -0.378290          1.967187
  35         O                -0.370827          1.882521
  36         O                -0.357587          2.011402
  37         O                -0.346327          1.377176
  38         O                -0.332590          1.634878
  39         O                -0.327849          2.227311
  40         O                -0.311935          2.387008
  41         O                -0.303482          1.984195
  42         O                -0.297205          2.320346
  43         O                -0.278950          2.172952
  44         O                -0.260065          2.123874
  45         O                -0.248410          2.122710
  46         O                -0.243856          2.070530
  47         O                -0.226406          2.199207
  48         O                -0.221922          2.110877
  49         O                -0.217006          2.254606
  50         O                -0.208422          2.272203
  51         O                -0.207721          2.231893
  52         O                -0.200366          2.303848
  53         O                -0.183636          2.225184
  54         V                 0.103828          1.423912
  55         V                 0.133992          1.517516
  56         V                 0.140427          1.818146
  57         V                 0.147034          1.774523
  58         V                 0.184010          1.485834
  59         V                 0.190360          1.419928
  60         V                 0.196011          2.057616
  61         V                 0.206117          1.662396
  62         V                 0.216469          2.079456
  63         V                 0.225688          1.931622
  64         V                 0.235821          2.144960
  65         V                 0.247285          1.926748
  66         V                 0.259453          1.768639
  67         V                 0.281936          1.549039
  68         V                 0.298039          2.697783
  69         V                 0.316928          1.884398
  70         V                 0.380207          2.509017
  71         V                 0.389566          2.687514
  72         V                 0.429296          2.511737
  73         V                 0.435333          2.570018
  74         V                 0.464668          2.060496
  75         V                 0.469540          2.313789
  76         V                 0.506233          2.401375
  77         V                 0.528436          2.645653
  78         V                 0.599826          2.214845
  79         V                 0.623711          2.293112
  80         V                 0.629537          2.414993
  81         V                 0.690117          2.429763
  82         V                 0.700113          2.541272
  83         V                 0.712335          2.413203
  84         V                 0.757015          2.184807
  85         V                 0.796662          2.558248
  86         V                 0.803728          2.632687
  87         V                 0.830698          2.606267
  88         V                 0.845566          2.534540
  89         V                 0.857465          2.607433
  90         V                 0.869453          2.628106
  91         V                 0.884360          2.644681
  92         V                 0.889129          2.645590
  93         V                 0.918380          2.537407
  94         V                 0.939846          2.524383
  95         V                 0.942257          2.671317
  96         V                 0.966098          2.742084
  97         V                 0.970278          2.759589
  98         V                 0.977457          2.765478
  99         V                 0.989121          2.857741
 100         V                 1.009775          3.073799
 101         V                 1.046960          3.143533
 102         V                 1.053033          3.005520
 103         V                 1.057817          3.086037
 104         V                 1.072802          3.073163
 105         V                 1.079461          3.270782
 106         V                 1.097369          3.201915
 107         V                 1.100657          3.107186
 108         V                 1.106951          3.125067
 109         V                 1.119033          3.321596
 110         V                 1.127941          3.352166
 111         V                 1.149035          3.290326
 112         V                 1.155765          3.072075
 113         V                 1.200569          3.338492
 114         V                 1.212466          3.773227
 115         V                 1.237635          3.726022
 116         V                 1.243523          4.019075
 117         V                 1.261471          4.007716
 118         V                 1.282574          3.531438
 119         V                 1.285059          3.498990
 120         V                 1.328214          3.125737
 121         V                 1.372468          2.970353
 122         V                 1.397615          2.904372
 123         V                 1.454912          2.753431
 124         V                 1.467017          2.700435
 125         V                 1.493396          2.703612
 126         V                 1.525809          2.756411
 127         V                 1.552410          2.775660
 128         V                 1.582542          2.741553
 129         V                 1.627586          2.682440
 130         V                 1.661537          2.711913
 131         V                 1.678854          2.817271
 132         V                 1.695396          2.719902
 133         V                 1.726437          2.793259
 134         V                 1.742482          2.879354
 135         V                 1.776015          2.836381
 136         V                 1.794663          2.872503
 137         V                 1.846050          2.931898
 138         V                 1.859765          2.931554
 139         V                 1.877513          2.899305
 140         V                 1.886593          2.849400
 141         V                 1.893664          2.868079
 142         V                 1.904757          2.950766
 143         V                 1.918150          3.086325
 144         V                 1.923833          2.953319
 145         V                 1.930872          3.048760
 146         V                 1.943746          3.038281
 147         V                 1.968409          3.058765
 148         V                 1.970595          3.157276
 149         V                 2.005080          3.177381
 150         V                 2.044802          3.260053
 151         V                 2.057356          3.465337
 152         V                 2.074198          3.267100
 153         V                 2.093173          3.184692
 154         V                 2.101096          3.435385
 155         V                 2.120019          3.267618
 156         V                 2.153454          3.270422
 157         V                 2.161408          3.359549
 158         V                 2.179707          3.387253
 159         V                 2.205324          3.462486
 160         V                 2.216676          3.450175
 161         V                 2.251712          3.384358
 162         V                 2.312777          3.582786
 163         V                 2.332637          3.572869
 164         V                 2.377526          3.540983
 165         V                 2.428088          3.708625
 166         V                 2.445288          3.842764
 167         V                 2.476286          3.774450
 168         V                 2.489269          3.759683
 169         V                 2.541149          3.645158
 170         V                 2.557632          3.957775
 171         V                 2.565273          4.333700
 172         V                 2.606654          4.359583
 173         V                 2.682179          3.596392
 174         V                 2.719007          3.677916
 175         V                 2.748326          3.778298
 176         V                 2.757010          3.618657
 177         V                 2.785412          3.974387
 178         V                 2.821874          4.238185
 179         V                 2.832267          3.944648
 180         V                 2.844928          4.394636
 181         V                 2.869153          4.368701
 182         V                 2.896660          4.716226
 183         V                 2.902558          4.729878
 184         V                 2.922719          4.021903
 185         V                 2.981507          4.385687
 186         V                 3.057283          4.537832
 187         V                 3.258088          4.959848
 188         V                 3.426091          6.407278
 189         V                 3.474604          5.875533
 190         V                 3.484142          5.296656
 191         V                 3.508736          5.961411
 192         V                 3.532197          6.098779
 193         V                 3.582653         10.077181
 194         V                 3.636209         10.284564
 195         V                 3.879591          9.761801
 196         V                 3.906726          9.932862
 197         V                 3.956109          9.966460
 198         V                 4.005714         10.440486
 199         V                 4.070000         10.558059
 200         V                 4.156168         10.589992
 201         V                 4.274547         10.587178
 202         V                 4.438658         10.530043
 203         V                 4.630621         10.321953
 Total kinetic energy from orbitals= 1.282234994551D+03
                          Isotropic Fermi Contact Couplings
        Atom                 a.u.       MegaHertz       Gauss      10(-4) cm-1
     1  C(13)              0.15063     169.33606      60.42332      56.48443
     2  H(1)              -0.00109      -4.86586      -1.73626      -1.62308
     3  H(1)              -0.00099      -4.41682      -1.57603      -1.47329
     4  C(13)              0.02442      27.45187       9.79551       9.15696
     5  O(17)              0.03814     -23.11868      -8.24932      -7.71156
     6  H(1)               0.00168       7.50846       2.67920       2.50455
     7  P(31)              0.10160     184.00555      65.65776      61.37765
     8  P(31)              0.02168      39.26855      14.01200      13.09858
     9  O(17)              0.08759     -53.09671     -18.94623     -17.71116
    10  O(17)              0.01337      -8.10190      -2.89096      -2.70250
    11  O(17)              0.08668     -52.54487     -18.74932     -17.52708
    12  O(17)              0.91228    -553.01809    -197.33061    -184.46698
    13  O(17)              0.07817     -47.38507     -16.90817     -15.80596
    14  O(17)              0.01664     -10.08539      -3.59872      -3.36412
    15  H(1)               0.00005       0.23264       0.08301       0.07760
    16  H(1)               0.00109       4.87308       1.73884       1.62548
    17  H(1)               0.01182      52.82123      18.84793      17.61927
 --------------------------------------------------------
       Center         ----  Spin Dipole Couplings  ----
                      3XX-RR        3YY-RR        3ZZ-RR
 --------------------------------------------------------
     1   Atom       -0.005201      0.000400      0.004801
     2   Atom        0.002221     -0.005445      0.003224
     3   Atom        0.009674     -0.003510     -0.006164
     4   Atom       -0.007292      0.015050     -0.007759
     5   Atom        0.003998     -0.003377     -0.000621
     6   Atom       -0.000231     -0.002214      0.002445
     7   Atom       -0.005441      0.035399     -0.029959
     8   Atom       -0.007126      0.009139     -0.002013
     9   Atom       -0.026615      0.006487      0.020128
    10   Atom       -0.001227      0.003589     -0.002362
    11   Atom       -0.010875     -0.012354      0.023229
    12   Atom       -0.127120     -0.164967      0.292087
    13   Atom        0.011572      0.028126     -0.039698
    14   Atom       -0.002590      0.004539     -0.001949
    15   Atom        0.007085     -0.004099     -0.002986
    16   Atom        0.002593     -0.002452     -0.000141
    17   Atom       -0.043122     -0.044194      0.087316
 --------------------------------------------------------
                        XY            XZ            YZ
 --------------------------------------------------------
     1   Atom        0.001622     -0.007093     -0.012857
     2   Atom       -0.003740     -0.000321      0.008271
     3   Atom       -0.000603      0.001512      0.005434
     4   Atom       -0.015952     -0.009075      0.010079
     5   Atom        0.001433     -0.001846      0.003090
     6   Atom       -0.000278     -0.001893     -0.001055
     7   Atom        0.040653      0.001382      0.000155
     8   Atom       -0.004490     -0.003514      0.008556
     9   Atom        0.026992     -0.021663     -0.053227
    10   Atom       -0.002778      0.000145     -0.003284
    11   Atom        0.007574     -0.025908     -0.007943
    12   Atom        0.010645      0.171565      0.064383
    13   Atom        0.057133     -0.008032     -0.003025
    14   Atom       -0.000893     -0.000021      0.004762
    15   Atom       -0.003454     -0.005738      0.001472
    16   Atom       -0.001570      0.003348     -0.002254
    17   Atom        0.000439     -0.012568     -0.014915
 --------------------------------------------------------


 ---------------------------------------------------------------------------------
              Anisotropic Spin Dipole Couplings in Principal Axis System
 ---------------------------------------------------------------------------------

       Atom             a.u.   MegaHertz   Gauss  10(-4) cm-1        Axes

              Baa    -0.0124    -1.663    -0.593    -0.555  0.5014  0.5809  0.6412
     1 C(13)  Bbb    -0.0051    -0.688    -0.245    -0.229  0.8193 -0.5570 -0.1361
              Bcc     0.0175     2.351     0.839     0.784 -0.2781 -0.5936  0.7552
 
              Baa    -0.0112    -5.949    -2.123    -1.984  0.2253  0.8466 -0.4821
     2 H(1)   Bbb     0.0021     1.146     0.409     0.382  0.9166 -0.0164  0.3994
              Bcc     0.0090     4.803     1.714     1.602 -0.3303  0.5319  0.7798
 
              Baa    -0.0106    -5.630    -2.009    -1.878 -0.0771 -0.6133  0.7861
     3 H(1)   Bbb     0.0007     0.392     0.140     0.131 -0.0501  0.7898  0.6113
              Bcc     0.0098     5.238     1.869     1.747  0.9958 -0.0077  0.0916
 
              Baa    -0.0176    -2.366    -0.844    -0.789  0.8257  0.2466  0.5073
     4 C(13)  Bbb    -0.0106    -1.416    -0.505    -0.472 -0.3308 -0.5169  0.7896
              Bcc     0.0282     3.782     1.350     1.262 -0.4569  0.8198  0.3452
 
              Baa    -0.0059     0.425     0.152     0.142 -0.2197  0.8055 -0.5504
     5 O(17)  Bbb     0.0012    -0.088    -0.031    -0.029  0.2129  0.5902  0.7787
              Bcc     0.0047    -0.337    -0.120    -0.113  0.9521  0.0539 -0.3011
 
              Baa    -0.0027    -1.433    -0.511    -0.478  0.3382  0.8893  0.3077
     6 H(1)   Bbb    -0.0009    -0.457    -0.163    -0.152  0.8341 -0.4347  0.3395
              Bcc     0.0035     1.889     0.674     0.630 -0.4357 -0.1418  0.8888
 
              Baa    -0.0314    -6.781    -2.420    -2.262  0.6739 -0.4089 -0.6154
     7 P(31)  Bbb    -0.0291    -6.293    -2.246    -2.099  0.5198 -0.3295  0.7882
              Bcc     0.0605    13.075     4.665     4.361  0.5250  0.8510  0.0095
 
              Baa    -0.0089    -1.928    -0.688    -0.643  0.8991  0.0164  0.4374
     8 P(31)  Bbb    -0.0063    -1.357    -0.484    -0.453 -0.3629 -0.5308  0.7659
              Bcc     0.0152     3.285     1.172     1.096 -0.2447  0.8474  0.4713
 
              Baa    -0.0449     3.246     1.158     1.083 -0.5939  0.7081  0.3819
     9 O(17)  Bbb    -0.0332     2.405     0.858     0.802  0.7422  0.2991  0.5997
              Bcc     0.0781    -5.651    -2.017    -1.885 -0.3104 -0.6396  0.7032
 
              Baa    -0.0042     0.307     0.110     0.103  0.3949  0.4706  0.7890
    10 O(17)  Bbb    -0.0017     0.126     0.045     0.042  0.8524  0.1326 -0.5058
              Bcc     0.0060    -0.434    -0.155    -0.145 -0.3426  0.8723 -0.3488
 
              Baa    -0.0256     1.851     0.660     0.617  0.8722 -0.2455  0.4231
    11 O(17)  Bbb    -0.0138     0.998     0.356     0.333  0.1256  0.9483  0.2914
              Bcc     0.0394    -2.848    -1.016    -0.950 -0.4727 -0.2010  0.8580
 
              Baa    -0.1945    14.075     5.022     4.695  0.8132  0.4661 -0.3484
    12 O(17)  Bbb    -0.1667    12.060     4.303     4.023 -0.4783  0.8764  0.0559
              Bcc     0.3612   -26.135    -9.326    -8.718  0.3314  0.1212  0.9357
 
              Baa    -0.0433     3.131     1.117     1.045  0.4890 -0.3576  0.7956
    13 O(17)  Bbb    -0.0348     2.517     0.898     0.840 -0.5763  0.5523  0.6024
              Bcc     0.0781    -5.649    -2.016    -1.884  0.6548  0.7531 -0.0640
 
              Baa    -0.0046     0.329     0.117     0.110 -0.2047 -0.4700  0.8586
    14 O(17)  Bbb    -0.0026     0.186     0.066     0.062  0.9754 -0.0244  0.2192
              Bcc     0.0071    -0.515    -0.184    -0.172 -0.0821  0.8823  0.4634
 
              Baa    -0.0056    -2.986    -1.065    -0.996  0.4402  0.1441  0.8863
    15 H(1)   Bbb    -0.0050    -2.691    -0.960    -0.898  0.1613  0.9583 -0.2359
              Bcc     0.0106     5.677     2.026     1.894  0.8833 -0.2468 -0.3986
 
              Baa    -0.0039    -2.066    -0.737    -0.689 -0.1055  0.8064  0.5819
    16 H(1)   Bbb    -0.0018    -0.955    -0.341    -0.319  0.6306  0.5067 -0.5879
              Bcc     0.0057     3.021     1.078     1.008  0.7689 -0.3049  0.5620
 
              Baa    -0.0463   -24.714    -8.818    -8.244  0.4270  0.8934  0.1399
    17 H(1)   Bbb    -0.0438   -23.395    -8.348    -7.804  0.8994 -0.4356  0.0366
              Bcc     0.0902    48.108    17.166    16.047 -0.0937 -0.1102  0.9895
 

 ---------------------------------------------------------------------------------


 Test job not archived.
 1\1\GINC-BATAGIN1\SP\UB3LYP\6-31G(d,p)\C2H6O7P2(3-,2)\ORISON\08-Feb-20
 21\0\\#t B3LYP/6-31G(d,p) scrf=(solvent=water) # Gfinput IOP(6/7=3) Po
 p=hirshfeld Density Test # Units(Ang,Deg)\\eti-2dp-opt-g09.log\\-3,2\C
 ,0,0.03678,1.86311,0.81911\H,0,0.05643,1.53009,1.85991\H,0,-0.8391,2.4
 9812,0.66358\C,0,0.00782,0.66901,-0.13618\O,0,-0.01905,1.18454,-1.4859
 1\H,0,-0.56995,0.52705,-1.95789\P,0,-1.55686,-0.36208,0.02755\P,0,1.54
 994,-0.37443,0.08434\O,0,-1.90524,-0.75366,-1.40151\O,0,1.52327,-1.531
 94,-0.89046\O,0,2.72267,0.69693,-0.46658\O,0,-2.71715,0.76191,0.46197\
 O,0,-1.47189,-1.38812,1.13493\O,0,1.8452,-0.59649,1.55655\H,0,0.93711,
 2.45999,0.63867\H,0,3.1742,1.03141,0.3207\H,0,-2.745,0.82287,1.42718\\
 Version=EM64L-G16RevA.03\State=2-A\HF=-1289.4760223\S2=0.750848\S2-1=0
 .\S2A=0.75\RMSD=8.014e-09\Dipole=2.9489194,2.3375654,-0.8887425\Quadru
 pole=-16.1611561,9.5112135,6.6499425,5.5736721,6.1635211,0.7733267\PG=
 C01 [X(C2H6O7P2)]\\@


 The impersonal hand of government can
 never replace the helping hand of a neighbor.
                        -- Hubert H. Humphrey
 Job cpu time:       0 days  0 hours  9 minutes 44.7 seconds.
 Elapsed time:       0 days  0 hours  1 minutes 13.3 seconds.
 File lengths (MBytes):  RWF=     88 Int=      0 D2E=      0 Chk=      5 Scr=      1
 Normal termination of Gaussian 16 at Mon Feb  8 14:39:26 2021.
