 Entering Gaussian System, Link 0=g16
 Input=eti-2dp_cation_scf_g09.com
 Output=eti-2dp_cation_scf_g09.log
 Initial command:
 /opt/g16//g16/l1.exe "/home/orison/scrgauss/Gau-13951.inp" -scrdir="/home/orison/scrgauss/"
 Entering Link 1 = /opt/g16//g16/l1.exe PID=     13953.
  
 Copyright (c) 1988,1990,1992,1993,1995,1998,2003,2009,2016,
            Gaussian, Inc.  All Rights Reserved.
  
 This is part of the Gaussian(R) 16 program.  It is based on
 the Gaussian(R) 09 system (copyright 2009, Gaussian, Inc.),
 the Gaussian(R) 03 system (copyright 2003, Gaussian, Inc.),
 the Gaussian(R) 98 system (copyright 1998, Gaussian, Inc.),
 the Gaussian(R) 94 system (copyright 1995, Gaussian, Inc.),
 the Gaussian 92(TM) system (copyright 1992, Gaussian, Inc.),
 the Gaussian 90(TM) system (copyright 1990, Gaussian, Inc.),
 the Gaussian 88(TM) system (copyright 1988, Gaussian, Inc.),
 the Gaussian 86(TM) system (copyright 1986, Carnegie Mellon
 University), and the Gaussian 82(TM) system (copyright 1983,
 Carnegie Mellon University). Gaussian is a federally registered
 trademark of Gaussian, Inc.
  
 This software contains proprietary and confidential information,
 including trade secrets, belonging to Gaussian, Inc.
  
 This software is provided under written license and may be
 used, copied, transmitted, or stored only in accord with that
 written license.
  
 The following legend is applicable only to US Government
 contracts under FAR:
  
                    RESTRICTED RIGHTS LEGEND
  
 Use, reproduction and disclosure by the US Government is
 subject to restrictions as set forth in subparagraphs (a)
 and (c) of the Commercial Computer Software - Restricted
 Rights clause in FAR 52.227-19.
  
 Gaussian, Inc.
 340 Quinnipiac St., Bldg. 40, Wallingford CT 06492
  
  
 ---------------------------------------------------------------
 Warning -- This program may not be used in any manner that
 competes with the business of Gaussian, Inc. or will provide
 assistance to any competitor of Gaussian, Inc.  The licensee
 of this program is prohibited from giving any competitor of
 Gaussian, Inc. access to this program.  By using this program,
 the user acknowledges that Gaussian, Inc. is engaged in the
 business of creating and licensing software in the field of
 computational chemistry and represents and warrants to the
 licensee that it is not a competitor of Gaussian, Inc. and that
 it will not use this program in any manner prohibited above.
 ---------------------------------------------------------------
  

 Cite this work as:
 Gaussian 16, Revision A.03,
 M. J. Frisch, G. W. Trucks, H. B. Schlegel, G. E. Scuseria, 
 M. A. Robb, J. R. Cheeseman, G. Scalmani, V. Barone, 
 G. A. Petersson, H. Nakatsuji, X. Li, M. Caricato, A. V. Marenich, 
 J. Bloino, B. G. Janesko, R. Gomperts, B. Mennucci, H. P. Hratchian, 
 J. V. Ortiz, A. F. Izmaylov, J. L. Sonnenberg, D. Williams-Young, 
 F. Ding, F. Lipparini, F. Egidi, J. Goings, B. Peng, A. Petrone, 
 T. Henderson, D. Ranasinghe, V. G. Zakrzewski, J. Gao, N. Rega, 
 G. Zheng, W. Liang, M. Hada, M. Ehara, K. Toyota, R. Fukuda, 
 J. Hasegawa, M. Ishida, T. Nakajima, Y. Honda, O. Kitao, H. Nakai, 
 T. Vreven, K. Throssell, J. A. Montgomery, Jr., J. E. Peralta, 
 F. Ogliaro, M. J. Bearpark, J. J. Heyd, E. N. Brothers, K. N. Kudin, 
 V. N. Staroverov, T. A. Keith, R. Kobayashi, J. Normand, 
 K. Raghavachari, A. P. Rendell, J. C. Burant, S. S. Iyengar, 
 J. Tomasi, M. Cossi, J. M. Millam, M. Klene, C. Adamo, R. Cammi, 
 J. W. Ochterski, R. L. Martin, K. Morokuma, O. Farkas, 
 J. B. Foresman, and D. J. Fox, Gaussian, Inc., Wallingford CT, 2016.
 
 ******************************************
 Gaussian 16:  EM64L-G16RevA.03 25-Dec-2016
                 8-Feb-2021 
 ******************************************
 %nproc=8
 Will use up to    8 processors via shared memory.
 %Mem=4GB
 ----------------------------------------------------------------------
 #t B3LYP/6-31G(d,p) scrf=(solvent=water) # Gfinput IOP(6/7=3) Pop=hirs
 hfeld Density Test # Units(Ang,Deg)
 ----------------------------------------------------------------------
 -------------------
 eti-2dp-opt-g09.log
 -------------------
 Symbolic Z-matrix:
 Charge = -1 Multiplicity = 2
 C                     0.03678   1.86311   0.81911 
 H                     0.05643   1.53009   1.85991 
 H                    -0.8391    2.49812   0.66358 
 C                     0.00782   0.66901  -0.13618 
 O                    -0.01905   1.18454  -1.48591 
 H                    -0.56995   0.52705  -1.95789 
 P                    -1.55686  -0.36208   0.02755 
 P                     1.54994  -0.37443   0.08434 
 O                    -1.90524  -0.75366  -1.40151 
 O                     1.52327  -1.53194  -0.89046 
 O                     2.72267   0.69693  -0.46658 
 O                    -2.71715   0.76191   0.46197 
 O                    -1.47189  -1.38812   1.13493 
 O                     1.8452   -0.59649   1.55655 
 H                     0.93711   2.45999   0.63867 
 H                     3.1742    1.03141   0.3207 
 H                    -2.745     0.82287   1.42718 
 
                    Distance matrix (angstroms):
                    1          2          3          4          5
     1  C    0.000000
     2  H    1.092956   0.000000
     3  H    1.092974   1.780523   0.000000
     4  C    1.529475   2.174442   2.168532   0.000000
     5  O    2.403475   3.364463   2.649204   1.445083   0.000000
     6  H    3.140845   3.996753   3.290845   1.916402   0.979055
     7  P    2.849162   3.088779   3.016696   1.881004   2.654704
     8  P    2.799308   3.001736   3.780817   1.874975   2.712527
     9  O    3.943359   4.438527   3.996914   2.699046   2.705819
    10  O    4.081501   4.369460   4.923131   2.776636   3.180028
    11  O    3.197965   3.635319   4.148223   2.735024   2.965439
    12  O    2.987360   3.199544   2.565569   2.791393   3.354489
    13  O    3.598100   3.373026   3.965533   2.834968   3.949446
    14  O    3.140674   2.795365   4.192788   2.800498   3.987989
    15  H    1.095180   1.769672   1.776794   2.161384   2.656098
    16  H    3.283830   3.512597   4.286652   3.219633   3.672075
    17  H    3.031526   2.921545   2.649906   3.169509   4.005958
                    6          7          8          9         10
     6  H    0.000000
     7  P    2.388831   0.000000
     8  P    3.078523   3.107344   0.000000
     9  O    1.932039   1.522142   3.780190   0.000000
    10  O    3.124167   3.420309   1.513531   3.552685   0.000000
    11  O    3.618592   4.436220   1.681256   4.939216   2.566339
    12  O    3.243663   1.672826   4.431922   2.535490   5.007192
    13  O    3.747920   1.512041   3.356004   2.650257   3.618546
    14  O    4.409828   3.737218   1.517858   4.779186   2.639425
    15  H    3.570660   3.815420   2.952419   4.750667   4.314780
    16  H    4.411917   4.940717   2.161128   5.652716   3.280738
    17  H    4.034483   2.185120   4.656528   3.345464   5.397658
                   11         12         13         14         15
    11  O    0.000000
    12  O    5.518883   0.000000
    13  O    4.950414   2.574136   0.000000
    14  O    2.556549   4.884505   3.436208   0.000000
    15  H    2.741930   4.033400   4.567002   3.318012   0.000000
    16  H    0.967247   5.899203   5.301250   2.437955   2.673297
    17  H    5.787711   0.967534   2.568014   4.806377   4.106074
                   16         17
    16  H    0.000000
    17  H    6.025339   0.000000
 Framework group  C1[X(C2H6O7P2)]
 Deg. of freedom    45
                         Standard orientation:                         
 ---------------------------------------------------------------------
 Center     Atomic      Atomic             Coordinates (Angstroms)
 Number     Number       Type             X           Y           Z
 ---------------------------------------------------------------------
      1          6           0       -0.036779    1.863110   -0.819110
      2          1           0       -0.056429    1.530090   -1.859910
      3          1           0        0.839102    2.498120   -0.663580
      4          6           0       -0.007820    0.669010    0.136180
      5          8           0        0.019051    1.184540    1.485910
      6          1           0        0.569950    0.527050    1.957890
      7         15           0        1.556859   -0.362081   -0.027550
      8         15           0       -1.549941   -0.374428   -0.084340
      9          8           0        1.905239   -0.753661    1.401510
     10          8           0       -1.523272   -1.531938    0.890460
     11          8           0       -2.722670    0.696933    0.466580
     12          8           0        2.717150    0.761908   -0.461970
     13          8           0        1.471889   -1.388121   -1.134930
     14          8           0       -1.845201   -0.596488   -1.556550
     15          1           0       -0.937108    2.459991   -0.638670
     16          1           0       -3.174199    1.031413   -0.320700
     17          1           0        2.745000    0.822868   -1.427180
 ---------------------------------------------------------------------
 Rotational constants (GHZ):           1.4081499           0.6709590           0.6430224
 AO basis set in the form of general basis input (Overlap normalization):
      1 0
 S   6 1.00       0.000000000000
      0.3047524880D+04  0.1834737132D-02
      0.4573695180D+03  0.1403732281D-01
      0.1039486850D+03  0.6884262226D-01
      0.2921015530D+02  0.2321844432D+00
      0.9286662960D+01  0.4679413484D+00
      0.3163926960D+01  0.3623119853D+00
 SP   3 1.00       0.000000000000
      0.7868272350D+01 -0.1193324198D+00  0.6899906659D-01
      0.1881288540D+01 -0.1608541517D+00  0.3164239610D+00
      0.5442492580D+00  0.1143456438D+01  0.7443082909D+00
 SP   1 1.00       0.000000000000
      0.1687144782D+00  0.1000000000D+01  0.1000000000D+01
 D   1 1.00       0.000000000000
      0.8000000000D+00  0.1000000000D+01
 ****
      2 0
 S   3 1.00       0.000000000000
      0.1873113696D+02  0.3349460434D-01
      0.2825394365D+01  0.2347269535D+00
      0.6401216923D+00  0.8137573261D+00
 S   1 1.00       0.000000000000
      0.1612777588D+00  0.1000000000D+01
 P   1 1.00       0.000000000000
      0.1100000000D+01  0.1000000000D+01
 ****
      3 0
 S   3 1.00       0.000000000000
      0.1873113696D+02  0.3349460434D-01
      0.2825394365D+01  0.2347269535D+00
      0.6401216923D+00  0.8137573261D+00
 S   1 1.00       0.000000000000
      0.1612777588D+00  0.1000000000D+01
 P   1 1.00       0.000000000000
      0.1100000000D+01  0.1000000000D+01
 ****
      4 0
 S   6 1.00       0.000000000000
      0.3047524880D+04  0.1834737132D-02
      0.4573695180D+03  0.1403732281D-01
      0.1039486850D+03  0.6884262226D-01
      0.2921015530D+02  0.2321844432D+00
      0.9286662960D+01  0.4679413484D+00
      0.3163926960D+01  0.3623119853D+00
 SP   3 1.00       0.000000000000
      0.7868272350D+01 -0.1193324198D+00  0.6899906659D-01
      0.1881288540D+01 -0.1608541517D+00  0.3164239610D+00
      0.5442492580D+00  0.1143456438D+01  0.7443082909D+00
 SP   1 1.00       0.000000000000
      0.1687144782D+00  0.1000000000D+01  0.1000000000D+01
 D   1 1.00       0.000000000000
      0.8000000000D+00  0.1000000000D+01
 ****
      5 0
 S   6 1.00       0.000000000000
      0.5484671660D+04  0.1831074430D-02
      0.8252349460D+03  0.1395017220D-01
      0.1880469580D+03  0.6844507810D-01
      0.5296450000D+02  0.2327143360D+00
      0.1689757040D+02  0.4701928980D+00
      0.5799635340D+01  0.3585208530D+00
 SP   3 1.00       0.000000000000
      0.1553961625D+02 -0.1107775495D+00  0.7087426823D-01
      0.3599933586D+01 -0.1480262627D+00  0.3397528391D+00
      0.1013761750D+01  0.1130767015D+01  0.7271585773D+00
 SP   1 1.00       0.000000000000
      0.2700058226D+00  0.1000000000D+01  0.1000000000D+01
 D   1 1.00       0.000000000000
      0.8000000000D+00  0.1000000000D+01
 ****
      6 0
 S   3 1.00       0.000000000000
      0.1873113696D+02  0.3349460434D-01
      0.2825394365D+01  0.2347269535D+00
      0.6401216923D+00  0.8137573261D+00
 S   1 1.00       0.000000000000
      0.1612777588D+00  0.1000000000D+01
 P   1 1.00       0.000000000000
      0.1100000000D+01  0.1000000000D+01
 ****
      7 0
 S   6 1.00       0.000000000000
      0.1941330000D+05  0.1851598923D-02
      0.2909420000D+04  0.1420619174D-01
      0.6613640000D+03  0.6999945928D-01
      0.1857590000D+03  0.2400788603D+00
      0.5919430000D+02  0.4847617180D+00
      0.2003100000D+02  0.3351998050D+00
 SP   6 1.00       0.000000000000
      0.3394780000D+03 -0.2782170105D-02  0.4564616191D-02
      0.8101010000D+02 -0.3604990135D-01  0.3369357188D-01
      0.2587800000D+02 -0.1166310044D+00  0.1397548834D+00
      0.9452210000D+01  0.9683280364D-01  0.3393617168D+00
      0.3665660000D+01  0.6144180231D+00  0.4509206237D+00
      0.1467460000D+01  0.4037980152D+00  0.2385858009D+00
 SP   3 1.00       0.000000000000
      0.2156230000D+01 -0.2529241139D+00 -0.1776531273D-01
      0.7489970000D+00  0.3285184468D-01  0.2740581964D+00
      0.2831450000D+00  0.1081254762D+01  0.7854215630D+00
 SP   1 1.00       0.000000000000
      0.9983170000D-01  0.1000000000D+01  0.1000000000D+01
 D   1 1.00       0.000000000000
      0.5500000000D+00  0.1000000000D+01
 ****
      8 0
 S   6 1.00       0.000000000000
      0.1941330000D+05  0.1851598923D-02
      0.2909420000D+04  0.1420619174D-01
      0.6613640000D+03  0.6999945928D-01
      0.1857590000D+03  0.2400788603D+00
      0.5919430000D+02  0.4847617180D+00
      0.2003100000D+02  0.3351998050D+00
 SP   6 1.00       0.000000000000
      0.3394780000D+03 -0.2782170105D-02  0.4564616191D-02
      0.8101010000D+02 -0.3604990135D-01  0.3369357188D-01
      0.2587800000D+02 -0.1166310044D+00  0.1397548834D+00
      0.9452210000D+01  0.9683280364D-01  0.3393617168D+00
      0.3665660000D+01  0.6144180231D+00  0.4509206237D+00
      0.1467460000D+01  0.4037980152D+00  0.2385858009D+00
 SP   3 1.00       0.000000000000
      0.2156230000D+01 -0.2529241139D+00 -0.1776531273D-01
      0.7489970000D+00  0.3285184468D-01  0.2740581964D+00
      0.2831450000D+00  0.1081254762D+01  0.7854215630D+00
 SP   1 1.00       0.000000000000
      0.9983170000D-01  0.1000000000D+01  0.1000000000D+01
 D   1 1.00       0.000000000000
      0.5500000000D+00  0.1000000000D+01
 ****
      9 0
 S   6 1.00       0.000000000000
      0.5484671660D+04  0.1831074430D-02
      0.8252349460D+03  0.1395017220D-01
      0.1880469580D+03  0.6844507810D-01
      0.5296450000D+02  0.2327143360D+00
      0.1689757040D+02  0.4701928980D+00
      0.5799635340D+01  0.3585208530D+00
 SP   3 1.00       0.000000000000
      0.1553961625D+02 -0.1107775495D+00  0.7087426823D-01
      0.3599933586D+01 -0.1480262627D+00  0.3397528391D+00
      0.1013761750D+01  0.1130767015D+01  0.7271585773D+00
 SP   1 1.00       0.000000000000
      0.2700058226D+00  0.1000000000D+01  0.1000000000D+01
 D   1 1.00       0.000000000000
      0.8000000000D+00  0.1000000000D+01
 ****
     10 0
 S   6 1.00       0.000000000000
      0.5484671660D+04  0.1831074430D-02
      0.8252349460D+03  0.1395017220D-01
      0.1880469580D+03  0.6844507810D-01
      0.5296450000D+02  0.2327143360D+00
      0.1689757040D+02  0.4701928980D+00
      0.5799635340D+01  0.3585208530D+00
 SP   3 1.00       0.000000000000
      0.1553961625D+02 -0.1107775495D+00  0.7087426823D-01
      0.3599933586D+01 -0.1480262627D+00  0.3397528391D+00
      0.1013761750D+01  0.1130767015D+01  0.7271585773D+00
 SP   1 1.00       0.000000000000
      0.2700058226D+00  0.1000000000D+01  0.1000000000D+01
 D   1 1.00       0.000000000000
      0.8000000000D+00  0.1000000000D+01
 ****
     11 0
 S   6 1.00       0.000000000000
      0.5484671660D+04  0.1831074430D-02
      0.8252349460D+03  0.1395017220D-01
      0.1880469580D+03  0.6844507810D-01
      0.5296450000D+02  0.2327143360D+00
      0.1689757040D+02  0.4701928980D+00
      0.5799635340D+01  0.3585208530D+00
 SP   3 1.00       0.000000000000
      0.1553961625D+02 -0.1107775495D+00  0.7087426823D-01
      0.3599933586D+01 -0.1480262627D+00  0.3397528391D+00
      0.1013761750D+01  0.1130767015D+01  0.7271585773D+00
 SP   1 1.00       0.000000000000
      0.2700058226D+00  0.1000000000D+01  0.1000000000D+01
 D   1 1.00       0.000000000000
      0.8000000000D+00  0.1000000000D+01
 ****
     12 0
 S   6 1.00       0.000000000000
      0.5484671660D+04  0.1831074430D-02
      0.8252349460D+03  0.1395017220D-01
      0.1880469580D+03  0.6844507810D-01
      0.5296450000D+02  0.2327143360D+00
      0.1689757040D+02  0.4701928980D+00
      0.5799635340D+01  0.3585208530D+00
 SP   3 1.00       0.000000000000
      0.1553961625D+02 -0.1107775495D+00  0.7087426823D-01
      0.3599933586D+01 -0.1480262627D+00  0.3397528391D+00
      0.1013761750D+01  0.1130767015D+01  0.7271585773D+00
 SP   1 1.00       0.000000000000
      0.2700058226D+00  0.1000000000D+01  0.1000000000D+01
 D   1 1.00       0.000000000000
      0.8000000000D+00  0.1000000000D+01
 ****
     13 0
 S   6 1.00       0.000000000000
      0.5484671660D+04  0.1831074430D-02
      0.8252349460D+03  0.1395017220D-01
      0.1880469580D+03  0.6844507810D-01
      0.5296450000D+02  0.2327143360D+00
      0.1689757040D+02  0.4701928980D+00
      0.5799635340D+01  0.3585208530D+00
 SP   3 1.00       0.000000000000
      0.1553961625D+02 -0.1107775495D+00  0.7087426823D-01
      0.3599933586D+01 -0.1480262627D+00  0.3397528391D+00
      0.1013761750D+01  0.1130767015D+01  0.7271585773D+00
 SP   1 1.00       0.000000000000
      0.2700058226D+00  0.1000000000D+01  0.1000000000D+01
 D   1 1.00       0.000000000000
      0.8000000000D+00  0.1000000000D+01
 ****
     14 0
 S   6 1.00       0.000000000000
      0.5484671660D+04  0.1831074430D-02
      0.8252349460D+03  0.1395017220D-01
      0.1880469580D+03  0.6844507810D-01
      0.5296450000D+02  0.2327143360D+00
      0.1689757040D+02  0.4701928980D+00
      0.5799635340D+01  0.3585208530D+00
 SP   3 1.00       0.000000000000
      0.1553961625D+02 -0.1107775495D+00  0.7087426823D-01
      0.3599933586D+01 -0.1480262627D+00  0.3397528391D+00
      0.1013761750D+01  0.1130767015D+01  0.7271585773D+00
 SP   1 1.00       0.000000000000
      0.2700058226D+00  0.1000000000D+01  0.1000000000D+01
 D   1 1.00       0.000000000000
      0.8000000000D+00  0.1000000000D+01
 ****
     15 0
 S   3 1.00       0.000000000000
      0.1873113696D+02  0.3349460434D-01
      0.2825394365D+01  0.2347269535D+00
      0.6401216923D+00  0.8137573261D+00
 S   1 1.00       0.000000000000
      0.1612777588D+00  0.1000000000D+01
 P   1 1.00       0.000000000000
      0.1100000000D+01  0.1000000000D+01
 ****
     16 0
 S   3 1.00       0.000000000000
      0.1873113696D+02  0.3349460434D-01
      0.2825394365D+01  0.2347269535D+00
      0.6401216923D+00  0.8137573261D+00
 S   1 1.00       0.000000000000
      0.1612777588D+00  0.1000000000D+01
 P   1 1.00       0.000000000000
      0.1100000000D+01  0.1000000000D+01
 ****
     17 0
 S   3 1.00       0.000000000000
      0.1873113696D+02  0.3349460434D-01
      0.2825394365D+01  0.2347269535D+00
      0.6401216923D+00  0.8137573261D+00
 S   1 1.00       0.000000000000
      0.1612777588D+00  0.1000000000D+01
 P   1 1.00       0.000000000000
      0.1100000000D+01  0.1000000000D+01
 ****

   203 basis functions,   398 primitive gaussians,   203 cartesian basis functions
    53 alpha electrons       52 beta electrons
       nuclear repulsion energy       975.3995560417 Hartrees.
 NAtoms=   17 NActive=   17 NUniq=   17 SFac= 1.00D+00 NAtFMM=   60 NAOKFM=F Big=F
 ------------------------------------------------------------------------------
 Polarizable Continuum Model (PCM)
 =================================
 Model                : PCM.
 Atomic radii         : UFF (Universal Force Field).
 Polarization charges : Total charges.
 Charge compensation  : None.
 Solution method      : On-the-fly selection.
 Cavity type          : Scaled VdW (van der Waals Surface) (Alpha=1.100).
 Cavity algorithm     : GePol (No added spheres)
                        Default sphere list used, NSphG=   17.
                        Lebedev-Laikov grids with approx.  5.0 points / Ang**2.
                        Smoothing algorithm: York/Karplus (Gamma=1.0000).
                        Polarization charges: spherical gaussians, with
                                              point-specific exponents (IZeta= 3).
                        Self-potential: point-specific (ISelfS= 7).
                        Self-field    : sphere-specific E.n sum rule (ISelfD= 2).
 Solvent              : Water, Eps=  78.355300 Eps(inf)=   1.777849
 ------------------------------------------------------------------------------
 Spheres list:
 ISph  on   Nord     Re0    Alpha      Xe            Ye            Ze
    1   C      1    1.9255  1.100     -0.036779      1.863110     -0.819110
    2   H      2    1.4430  1.100     -0.056429      1.530090     -1.859910
    3   H      3    1.4430  1.100      0.839102      2.498120     -0.663580
    4   C      4    1.9255  1.100     -0.007820      0.669010      0.136180
    5   O      5    1.7500  1.100      0.019051      1.184540      1.485910
    6   H      6    1.4430  1.100      0.569950      0.527050      1.957890
    7   P      7    2.0735  1.100      1.556859     -0.362081     -0.027550
    8   P      8    2.0735  1.100     -1.549941     -0.374428     -0.084340
    9   O      9    1.7500  1.100      1.905239     -0.753661      1.401510
   10   O     10    1.7500  1.100     -1.523272     -1.531938      0.890460
   11   O     11    1.7500  1.100     -2.722670      0.696933      0.466580
   12   O     12    1.7500  1.100      2.717150      0.761908     -0.461970
   13   O     13    1.7500  1.100      1.471889     -1.388121     -1.134930
   14   O     14    1.7500  1.100     -1.845201     -0.596488     -1.556550
   15   H     15    1.4430  1.100     -0.937108      2.459991     -0.638670
   16   H     16    1.4430  1.100     -3.174199      1.031413     -0.320700
   17   H     17    1.4430  1.100      2.745000      0.822868     -1.427180
 ------------------------------------------------------------------------------
 ExpMin= 9.98D-02 ExpMax= 1.94D+04 ExpMxC= 2.91D+03 IAcc=3 IRadAn=         5 AccDes= 0.00D+00
 Harris functional with IExCor=  402 and IRadAn=       5 diagonalized for initial guess.
 HarFok:  IExCor=  402 AccDes= 0.00D+00 IRadAn=         5 IDoV= 1 UseB2=F ITyADJ=14
 ICtDFT=  3500011 ScaDFX=  1.000000  1.000000  1.000000  1.000000
 FoFCou: FMM=F IPFlag=           0 FMFlag=      100000 FMFlg1=           0
         NFxFlg=           0 DoJE=T BraDBF=F KetDBF=T FulRan=T
         wScrn=  0.000000 ICntrl=       500 IOpCl=  0 I1Cent=   200000004 NGrid=           0
         NMat0=    1 NMatS0=      1 NMatT0=    0 NMatD0=    1 NMtDS0=    0 NMtDT0=    0
 Petite list used in FoFCou.
 Initial guess <Sx>= 0.0000 <Sy>= 0.0000 <Sz>= 0.5000 <S**2>= 0.7500 S= 0.5000
 Inv3:  Mode=1 IEnd=     7921875.
 Iteration    1 A*A^-1 deviation from unit magnitude is 6.33D-15 for     25.
 Iteration    1 A*A^-1 deviation from orthogonality  is 2.85D-15 for   1439    312.
 Iteration    1 A^-1*A deviation from unit magnitude is 5.88D-15 for    900.
 Iteration    1 A^-1*A deviation from orthogonality  is 2.50D-15 for   1500    176.
 Restarting incremental Fock formation.
 Error on total polarization charges =  0.00521
 SCF Done:  E(UB3LYP) =  -1289.33402649     A.U. after   26 cycles
            NFock= 26  Conv=0.74D-08     -V/T= 2.0063
 <Sx>= 0.0000 <Sy>= 0.0000 <Sz>= 0.5000 <S**2>= 0.7546 S= 0.5023
 <L.S>= 0.000000000000E+00
 Annihilation of the first spin contaminant:
 S**2 before annihilation     0.7546,   after     0.7500

 **********************************************************************

            Population analysis using the SCF density.

 **********************************************************************

 Orbital symmetries:
 Alpha Orbitals:
       Occupied  (A) (A) (A) (A) (A) (A) (A) (A) (A) (A) (A) (A)
                 (A) (A) (A) (A) (A) (A) (A) (A) (A) (A) (A) (A)
                 (A) (A) (A) (A) (A) (A) (A) (A) (A) (A) (A) (A)
                 (A) (A) (A) (A) (A) (A) (A) (A) (A) (A) (A) (A)
                 (A) (A) (A) (A) (A)
       Virtual   (A) (A) (A) (A) (A) (A) (A) (A) (A) (A) (A) (A)
                 (A) (A) (A) (A) (A) (A) (A) (A) (A) (A) (A) (A)
                 (A) (A) (A) (A) (A) (A) (A) (A) (A) (A) (A) (A)
                 (A) (A) (A) (A) (A) (A) (A) (A) (A) (A) (A) (A)
                 (A) (A) (A) (A) (A) (A) (A) (A) (A) (A) (A) (A)
                 (A) (A) (A) (A) (A) (A) (A) (A) (A) (A) (A) (A)
                 (A) (A) (A) (A) (A) (A) (A) (A) (A) (A) (A) (A)
                 (A) (A) (A) (A) (A) (A) (A) (A) (A) (A) (A) (A)
                 (A) (A) (A) (A) (A) (A) (A) (A) (A) (A) (A) (A)
                 (A) (A) (A) (A) (A) (A) (A) (A) (A) (A) (A) (A)
                 (A) (A) (A) (A) (A) (A) (A) (A) (A) (A) (A) (A)
                 (A) (A) (A) (A) (A) (A) (A) (A) (A) (A) (A) (A)
                 (A) (A) (A) (A) (A) (A)
 Beta  Orbitals:
       Occupied  (A) (A) (A) (A) (A) (A) (A) (A) (A) (A) (A) (A)
                 (A) (A) (A) (A) (A) (A) (A) (A) (A) (A) (A) (A)
                 (A) (A) (A) (A) (A) (A) (A) (A) (A) (A) (A) (A)
                 (A) (A) (A) (A) (A) (A) (A) (A) (A) (A) (A) (A)
                 (A) (A) (A) (A)
       Virtual   (A) (A) (A) (A) (A) (A) (A) (A) (A) (A) (A) (A)
                 (A) (A) (A) (A) (A) (A) (A) (A) (A) (A) (A) (A)
                 (A) (A) (A) (A) (A) (A) (A) (A) (A) (A) (A) (A)
                 (A) (A) (A) (A) (A) (A) (A) (A) (A) (A) (A) (A)
                 (A) (A) (A) (A) (A) (A) (A) (A) (A) (A) (A) (A)
                 (A) (A) (A) (A) (A) (A) (A) (A) (A) (A) (A) (A)
                 (A) (A) (A) (A) (A) (A) (A) (A) (A) (A) (A) (A)
                 (A) (A) (A) (A) (A) (A) (A) (A) (A) (A) (A) (A)
                 (A) (A) (A) (A) (A) (A) (A) (A) (A) (A) (A) (A)
                 (A) (A) (A) (A) (A) (A) (A) (A) (A) (A) (A) (A)
                 (A) (A) (A) (A) (A) (A) (A) (A) (A) (A) (A) (A)
                 (A) (A) (A) (A) (A) (A) (A) (A) (A) (A) (A) (A)
                 (A) (A) (A) (A) (A) (A) (A)
 The electronic state is 2-A.
 Alpha  occ. eigenvalues --  -77.20408 -77.19787 -19.22208 -19.17037 -19.16890
 Alpha  occ. eigenvalues --  -19.13068 -19.11138 -19.11059 -19.10705 -10.29430
 Alpha  occ. eigenvalues --  -10.20042  -6.65385  -6.64692  -4.81782  -4.81730
 Alpha  occ. eigenvalues --   -4.81510  -4.81114  -4.81006  -4.80842  -1.08341
 Alpha  occ. eigenvalues --   -1.04253  -1.03762  -0.97560  -0.96585  -0.94050
 Alpha  occ. eigenvalues --   -0.93106  -0.78795  -0.65931  -0.60149  -0.56895
 Alpha  occ. eigenvalues --   -0.54536  -0.50413  -0.46074  -0.45868  -0.45438
 Alpha  occ. eigenvalues --   -0.42723  -0.41439  -0.40797  -0.39978  -0.38547
 Alpha  occ. eigenvalues --   -0.38359  -0.37161  -0.36660  -0.33682  -0.32883
 Alpha  occ. eigenvalues --   -0.31635  -0.30880  -0.29869  -0.29226  -0.28563
 Alpha  occ. eigenvalues --   -0.28097  -0.27703  -0.27190
 Alpha virt. eigenvalues --    0.04759   0.06273   0.07981   0.08229   0.11895
 Alpha virt. eigenvalues --    0.12937   0.14092   0.14272   0.14766   0.16404
 Alpha virt. eigenvalues --    0.18064   0.18721   0.20087   0.21883   0.22347
 Alpha virt. eigenvalues --    0.25183   0.32978   0.33068   0.37213   0.37414
 Alpha virt. eigenvalues --    0.40254   0.40617   0.44355   0.46469   0.53114
 Alpha virt. eigenvalues --    0.54358   0.56074   0.61107   0.62218   0.63928
 Alpha virt. eigenvalues --    0.69548   0.73221   0.74067   0.76957   0.77651
 Alpha virt. eigenvalues --    0.78706   0.81438   0.81556   0.83383   0.85987
 Alpha virt. eigenvalues --    0.87471   0.88387   0.88943   0.90220   0.91057
 Alpha virt. eigenvalues --    0.91926   0.95596   0.97270   0.99084   0.99478
 Alpha virt. eigenvalues --    1.01106   1.02038   1.02931   1.03670   1.04343
 Alpha virt. eigenvalues --    1.05209   1.06136   1.07732   1.09262   1.12941
 Alpha virt. eigenvalues --    1.14284   1.16814   1.17122   1.19200   1.21463
 Alpha virt. eigenvalues --    1.22672   1.25561   1.30249   1.32606   1.37605
 Alpha virt. eigenvalues --    1.39690   1.43093   1.45308   1.48107   1.51448
 Alpha virt. eigenvalues --    1.56340   1.57661   1.60980   1.61323   1.65014
 Alpha virt. eigenvalues --    1.67805   1.69007   1.72630   1.76708   1.78585
 Alpha virt. eigenvalues --    1.80884   1.81958   1.82511   1.82982   1.84066
 Alpha virt. eigenvalues --    1.84905   1.85577   1.87348   1.89467   1.89842
 Alpha virt. eigenvalues --    1.92807   1.96775   1.97576   1.99346   2.00638
 Alpha virt. eigenvalues --    2.03702   2.04899   2.08600   2.09183   2.10514
 Alpha virt. eigenvalues --    2.13474   2.14609   2.17438   2.24283   2.26168
 Alpha virt. eigenvalues --    2.29300   2.34537   2.36772   2.38678   2.41198
 Alpha virt. eigenvalues --    2.46507   2.47446   2.50110   2.51564   2.63356
 Alpha virt. eigenvalues --    2.63572   2.64168   2.69524   2.71143   2.72211
 Alpha virt. eigenvalues --    2.75535   2.77049   2.80020   2.83074   2.83641
 Alpha virt. eigenvalues --    2.86089   2.89871   2.97121   3.20016   3.37255
 Alpha virt. eigenvalues --    3.37865   3.42265   3.43667   3.44793   3.50312
 Alpha virt. eigenvalues --    3.55397   3.79946   3.84072   3.89361   3.93865
 Alpha virt. eigenvalues --    3.99784   4.09457   4.19476   4.34257   4.55503
  Beta  occ. eigenvalues --  -77.20411 -77.19786 -19.21521 -19.16925 -19.16821
  Beta  occ. eigenvalues --  -19.12529 -19.10879 -19.10822 -19.10597 -10.29094
  Beta  occ. eigenvalues --  -10.20038  -6.65390  -6.64690  -4.81809  -4.81684
  Beta  occ. eigenvalues --   -4.81533  -4.81122  -4.80978  -4.80849  -1.06973
  Beta  occ. eigenvalues --   -1.03810  -1.03441  -0.96742  -0.96189  -0.93076
  Beta  occ. eigenvalues --   -0.92644  -0.78015  -0.65134  -0.59192  -0.56428
  Beta  occ. eigenvalues --   -0.54238  -0.49408  -0.45450  -0.45320  -0.45049
  Beta  occ. eigenvalues --   -0.42114  -0.41022  -0.40483  -0.39445  -0.38045
  Beta  occ. eigenvalues --   -0.37457  -0.36790  -0.33988  -0.33169  -0.31799
  Beta  occ. eigenvalues --   -0.31064  -0.29801  -0.28613  -0.27945  -0.27409
  Beta  occ. eigenvalues --   -0.27125  -0.26638
  Beta virt. eigenvalues --   -0.21090   0.05142   0.06737   0.08265   0.08569
  Beta virt. eigenvalues --    0.12446   0.13424   0.14377   0.14545   0.15042
  Beta virt. eigenvalues --    0.16964   0.18227   0.18934   0.20258   0.22204
  Beta virt. eigenvalues --    0.22870   0.25480   0.33082   0.33229   0.37413
  Beta virt. eigenvalues --    0.37605   0.40452   0.40834   0.44476   0.46654
  Beta virt. eigenvalues --    0.53338   0.54579   0.56262   0.61576   0.62514
  Beta virt. eigenvalues --    0.64179   0.69738   0.73424   0.74318   0.77074
  Beta virt. eigenvalues --    0.77752   0.78930   0.81752   0.81996   0.83593
  Beta virt. eigenvalues --    0.86227   0.87870   0.88559   0.89244   0.90682
  Beta virt. eigenvalues --    0.91313   0.92259   0.95849   0.98141   0.99462
  Beta virt. eigenvalues --    0.99933   1.01348   1.02395   1.03347   1.03915
  Beta virt. eigenvalues --    1.04802   1.05576   1.06552   1.08190   1.09528
  Beta virt. eigenvalues --    1.13161   1.14673   1.17332   1.17365   1.19760
  Beta virt. eigenvalues --    1.21753   1.22931   1.25826   1.30611   1.32947
  Beta virt. eigenvalues --    1.38077   1.40079   1.43364   1.45568   1.48458
  Beta virt. eigenvalues --    1.51870   1.56636   1.57763   1.61258   1.61660
  Beta virt. eigenvalues --    1.65494   1.68109   1.69148   1.73028   1.77258
  Beta virt. eigenvalues --    1.79295   1.81445   1.82331   1.83136   1.83627
  Beta virt. eigenvalues --    1.84686   1.85500   1.86182   1.87796   1.90025
  Beta virt. eigenvalues --    1.90217   1.93152   1.97451   1.98137   2.00188
  Beta virt. eigenvalues --    2.01279   2.03953   2.05236   2.09019   2.09426
  Beta virt. eigenvalues --    2.10885   2.13807   2.15001   2.17845   2.24608
  Beta virt. eigenvalues --    2.26416   2.30116   2.34705   2.37054   2.39214
  Beta virt. eigenvalues --    2.41748   2.46869   2.47816   2.50354   2.51873
  Beta virt. eigenvalues --    2.63520   2.63692   2.64420   2.69694   2.71256
  Beta virt. eigenvalues --    2.72426   2.75861   2.77363   2.80391   2.83386
  Beta virt. eigenvalues --    2.83866   2.86276   2.90054   2.97561   3.20154
  Beta virt. eigenvalues --    3.37299   3.37931   3.42432   3.43736   3.45072
  Beta virt. eigenvalues --    3.50400   3.55480   3.80384   3.84506   3.89669
  Beta virt. eigenvalues --    3.94269   4.00209   4.09774   4.19859   4.34858
  Beta virt. eigenvalues --    4.55704
     Alpha Molecular Orbital Coefficients:
                           1         2         3         4         5
                           O         O         O         O         O
     Eigenvalues --   -77.20408 -77.19787 -19.22208 -19.17037 -19.16890
   1 1   C  1S         -0.00001  -0.00001   0.00000  -0.00003   0.00001
   2        2S         -0.00001   0.00001   0.00008  -0.00017  -0.00001
   3        2PX         0.00001  -0.00001   0.00002   0.00001   0.00002
   4        2PY         0.00003   0.00003   0.00002   0.00001  -0.00001
   5        2PZ        -0.00001  -0.00002   0.00009   0.00003   0.00002
   6        3S          0.00003  -0.00006   0.00029   0.00104  -0.00000
   7        3PX         0.00005  -0.00011  -0.00009  -0.00022   0.00006
   8        3PY         0.00017   0.00016  -0.00030  -0.00045   0.00007
   9        3PZ        -0.00012  -0.00011  -0.00033   0.00021   0.00002
  10        4XX        -0.00001  -0.00002   0.00002  -0.00003   0.00006
  11        4YY        -0.00004  -0.00005   0.00000  -0.00003   0.00003
  12        4ZZ        -0.00003  -0.00003  -0.00007  -0.00002   0.00001
  13        4XY        -0.00000   0.00001  -0.00001   0.00001  -0.00001
  14        4XZ         0.00002  -0.00002  -0.00000  -0.00001  -0.00000
  15        4YZ         0.00001   0.00001  -0.00000  -0.00003   0.00000
  16 2   H  1S          0.00002   0.00001  -0.00005  -0.00007  -0.00003
  17        2S         -0.00020  -0.00013  -0.00029  -0.00004   0.00016
  18        3PX         0.00002  -0.00001   0.00001   0.00001   0.00002
  19        3PY         0.00002   0.00002   0.00002   0.00002  -0.00001
  20        3PZ        -0.00002  -0.00001  -0.00001  -0.00000   0.00002
  21 3   H  1S         -0.00001   0.00002   0.00008  -0.00001   0.00005
  22        2S         -0.00003  -0.00013   0.00010   0.00013  -0.00013
  23        3PX         0.00000  -0.00001   0.00000  -0.00001   0.00002
  24        3PY        -0.00001   0.00003  -0.00000  -0.00000   0.00002
  25        3PZ         0.00001  -0.00001   0.00005  -0.00000   0.00001
  26 4   C  1S         -0.00004  -0.00004  -0.00002  -0.00000  -0.00002
  27        2S         -0.00004  -0.00007   0.00006  -0.00004  -0.00012
  28        2PX        -0.00005   0.00005   0.00001  -0.00007   0.00002
  29        2PY        -0.00001  -0.00001   0.00017   0.00005  -0.00001
  30        2PZ        -0.00001   0.00000   0.00029  -0.00004  -0.00006
  31        3S          0.00096   0.00108  -0.00093   0.00029   0.00076
  32        3PX        -0.00034   0.00037  -0.00020  -0.00011   0.00030
  33        3PY        -0.00020  -0.00016  -0.00067  -0.00081  -0.00021
  34        3PZ         0.00003   0.00001  -0.00079   0.00034  -0.00004
  35        4XX        -0.00012  -0.00012   0.00003   0.00005   0.00004
  36        4YY        -0.00010  -0.00010   0.00007  -0.00000  -0.00002
  37        4ZZ        -0.00007  -0.00007   0.00024  -0.00002  -0.00003
  38        4XY        -0.00004   0.00004   0.00001   0.00003  -0.00002
  39        4XZ        -0.00001   0.00000  -0.00001  -0.00001  -0.00000
  40        4YZ        -0.00001  -0.00000   0.00013   0.00002  -0.00002
  41 5   O  1S          0.00000   0.00000   0.99270  -0.00001  -0.00005
  42        2S          0.00002  -0.00000   0.02599  -0.00010  -0.00015
  43        2PX        -0.00000  -0.00001   0.00041   0.00002  -0.00005
  44        2PY         0.00001   0.00001  -0.00082   0.00003   0.00001
  45        2PZ         0.00001   0.00001  -0.00021   0.00000   0.00005
  46        3S         -0.00022  -0.00018   0.01230   0.00037   0.00048
  47        3PX         0.00013  -0.00001   0.00006  -0.00018   0.00018
  48        3PY         0.00004   0.00002  -0.00030  -0.00006  -0.00002
  49        3PZ         0.00010   0.00015  -0.00032  -0.00007  -0.00023
  50        4XX         0.00000   0.00001  -0.00810  -0.00003  -0.00009
  51        4YY        -0.00000  -0.00001  -0.00815  -0.00005  -0.00014
  52        4ZZ        -0.00000  -0.00000  -0.00825  -0.00006  -0.00011
  53        4XY         0.00002  -0.00004  -0.00001   0.00003  -0.00002
  54        4XZ        -0.00001   0.00001   0.00002   0.00002  -0.00003
  55        4YZ         0.00000  -0.00000  -0.00010  -0.00003   0.00002
  56 6   H  1S          0.00001  -0.00002   0.00028  -0.00009  -0.00007
  57        2S         -0.00014  -0.00022  -0.00159   0.00015   0.00040
  58        3PX         0.00002   0.00002   0.00009   0.00001  -0.00001
  59        3PY         0.00001  -0.00001  -0.00009   0.00002   0.00002
  60        3PZ         0.00003  -0.00001   0.00015   0.00001  -0.00002
  61 7   P  1S         -0.00026   0.99625   0.00000   0.00000   0.00001
  62        2S         -0.00000   0.01417   0.00001   0.00001   0.00000
  63        2PX        -0.00001  -0.00001  -0.00000  -0.00001  -0.00004
  64        2PY         0.00001   0.00004   0.00000   0.00000  -0.00006
  65        2PZ        -0.00000  -0.00001  -0.00000   0.00001   0.00001
  66        3S          0.00014  -0.02720   0.00016   0.00004   0.00007
  67        3PX         0.00009   0.00011  -0.00004   0.00005  -0.00001
  68        3PY        -0.00005  -0.00013   0.00001  -0.00001   0.00015
  69        3PZ         0.00002  -0.00000   0.00007  -0.00002   0.00001
  70        4S         -0.00023   0.00283  -0.00008  -0.00034  -0.00264
  71        4PX         0.00014  -0.00029  -0.00007   0.00014  -0.00083
  72        4PY         0.00009   0.00001  -0.00030   0.00002  -0.00155
  73        4PZ         0.00004  -0.00008   0.00028   0.00018  -0.00081
  74        5XX        -0.00011   0.00941  -0.00003  -0.00005   0.00015
  75        5YY        -0.00003   0.00944  -0.00001   0.00001   0.00019
  76        5ZZ        -0.00004   0.00946  -0.00002  -0.00001  -0.00003
  77        5XY         0.00001   0.00002  -0.00003   0.00001   0.00015
  78        5XZ         0.00002   0.00003   0.00003   0.00003  -0.00010
  79        5YZ        -0.00000   0.00001  -0.00003  -0.00002  -0.00005
  80 8   P  1S          0.99625   0.00026   0.00000   0.00001   0.00000
  81        2S          0.01417   0.00001   0.00006   0.00002   0.00001
  82        2PX         0.00001   0.00001  -0.00000   0.00004  -0.00000
  83        2PY         0.00004   0.00001  -0.00001  -0.00006  -0.00000
  84        2PZ         0.00001   0.00000   0.00000  -0.00003   0.00000
  85        3S         -0.02720   0.00014   0.00034   0.00013   0.00007
  86        3PX        -0.00010  -0.00008   0.00009   0.00007   0.00003
  87        3PY        -0.00013  -0.00006   0.00016   0.00023   0.00002
  88        3PZ        -0.00002  -0.00003  -0.00001   0.00006  -0.00001
  89        4S          0.00292  -0.00028  -0.00146  -0.00305  -0.00040
  90        4PX         0.00027  -0.00016  -0.00031   0.00033  -0.00034
  91        4PY         0.00013   0.00007  -0.00054  -0.00119   0.00025
  92        4PZ        -0.00016   0.00005  -0.00044  -0.00121  -0.00004
  93        5XX         0.00940  -0.00011  -0.00000   0.00018  -0.00001
  94        5YY         0.00943  -0.00002   0.00004   0.00018   0.00001
  95        5ZZ         0.00947  -0.00003  -0.00003  -0.00000  -0.00000
  96        5XY        -0.00002  -0.00002   0.00002  -0.00012  -0.00001
  97        5XZ        -0.00001  -0.00000   0.00000  -0.00008  -0.00000
  98        5YZ        -0.00000  -0.00001   0.00001   0.00013   0.00001
  99 9   O  1S          0.00001   0.00000  -0.00001   0.00000  -0.00004
 100        2S          0.00002  -0.00007  -0.00000   0.00004  -0.00024
 101        2PX        -0.00001   0.00003   0.00001  -0.00000  -0.00003
 102        2PY         0.00000  -0.00005  -0.00001   0.00002  -0.00002
 103        2PZ        -0.00001   0.00016  -0.00004   0.00000  -0.00002
 104        3S         -0.00008   0.00066   0.00001  -0.00016   0.00149
 105        3PX         0.00002  -0.00004  -0.00010   0.00001   0.00009
 106        3PY        -0.00002   0.00013   0.00013  -0.00007   0.00027
 107        3PZ         0.00005  -0.00039   0.00022  -0.00000  -0.00020
 108        4XX         0.00002   0.00001   0.00002   0.00003  -0.00017
 109        4YY         0.00004   0.00001   0.00000   0.00003  -0.00015
 110        4ZZ         0.00002  -0.00020  -0.00002   0.00003  -0.00016
 111        4XY        -0.00000   0.00001  -0.00001   0.00001  -0.00004
 112        4XZ        -0.00001  -0.00008  -0.00003   0.00000   0.00002
 113        4YZ         0.00001   0.00008   0.00002   0.00000   0.00001
 114 10  O  1S          0.00001   0.00001  -0.00003  -0.00004  -0.00001
 115        2S         -0.00005   0.00003  -0.00017  -0.00022  -0.00007
 116        2PX         0.00002   0.00002  -0.00001  -0.00001  -0.00000
 117        2PY        -0.00013   0.00001  -0.00005  -0.00002  -0.00000
 118        2PZ         0.00012   0.00001  -0.00002  -0.00005   0.00001
 119        3S          0.00060  -0.00009   0.00079   0.00128   0.00039
 120        3PX        -0.00008  -0.00006   0.00006  -0.00001   0.00003
 121        3PY         0.00030  -0.00004   0.00029   0.00040   0.00004
 122        3PZ        -0.00027  -0.00001   0.00002   0.00008  -0.00007
 123        4XX         0.00004   0.00001  -0.00013  -0.00016  -0.00006
 124        4YY        -0.00011   0.00003  -0.00008  -0.00012  -0.00005
 125        4ZZ        -0.00007   0.00003  -0.00014  -0.00015  -0.00004
 126        4XY        -0.00001  -0.00001   0.00001   0.00005   0.00001
 127        4XZ         0.00000   0.00000  -0.00000   0.00002   0.00000
 128        4YZ         0.00015   0.00001  -0.00000  -0.00001  -0.00000
 129 11  O  1S         -0.00002  -0.00000  -0.00004   0.99273   0.00001
 130        2S         -0.00005  -0.00001  -0.00014   0.02584   0.00001
 131        2PX        -0.00001  -0.00001  -0.00000  -0.00002  -0.00001
 132        2PY         0.00004  -0.00000   0.00002  -0.00003  -0.00001
 133        2PZ         0.00003   0.00000   0.00001  -0.00097  -0.00000
 134        3S          0.00080   0.00003   0.00070   0.01225  -0.00006
 135        3PX         0.00012   0.00004   0.00016   0.00051   0.00002
 136        3PY        -0.00024   0.00001  -0.00008  -0.00032   0.00003
 137        3PZ        -0.00026  -0.00001  -0.00004   0.00007   0.00001
 138        4XX        -0.00015  -0.00001  -0.00006  -0.00811   0.00001
 139        4YY        -0.00012  -0.00001  -0.00007  -0.00814   0.00000
 140        4ZZ        -0.00003  -0.00001  -0.00005  -0.00810   0.00000
 141        4XY         0.00008  -0.00000  -0.00001  -0.00000  -0.00000
 142        4XZ         0.00010  -0.00000   0.00001   0.00003   0.00000
 143        4YZ        -0.00008   0.00000  -0.00003  -0.00003  -0.00000
 144 12  O  1S         -0.00000  -0.00002  -0.00001  -0.00001   0.99273
 145        2S         -0.00001  -0.00008  -0.00010  -0.00002   0.02585
 146        2PX         0.00001   0.00004   0.00003   0.00001  -0.00041
 147        2PY        -0.00000   0.00004   0.00000   0.00000  -0.00032
 148        2PZ         0.00000   0.00001  -0.00000   0.00000  -0.00081
 149        3S         -0.00000   0.00090   0.00045   0.00007   0.01223
 150        3PX        -0.00004  -0.00024  -0.00016  -0.00006  -0.00035
 151        3PY        -0.00000  -0.00029  -0.00004  -0.00002  -0.00020
 152        3PZ        -0.00001  -0.00007   0.00006  -0.00000   0.00047
 153        4XX         0.00000  -0.00018  -0.00006  -0.00001  -0.00814
 154        4YY        -0.00000  -0.00016  -0.00009  -0.00001  -0.00816
 155        4ZZ        -0.00001  -0.00000  -0.00010  -0.00002  -0.00810
 156        4XY         0.00001  -0.00011   0.00000   0.00000  -0.00003
 157        4XZ         0.00000   0.00004  -0.00001   0.00000  -0.00002
 158        4YZ         0.00000   0.00003   0.00001   0.00000  -0.00001
 159 13  O  1S          0.00000   0.00002   0.00000  -0.00001  -0.00002
 160        2S          0.00001  -0.00002   0.00001  -0.00004   0.00008
 161        2PX        -0.00002  -0.00002  -0.00000  -0.00001  -0.00001
 162        2PY         0.00000  -0.00011  -0.00001  -0.00001  -0.00001
 163        2PZ        -0.00001  -0.00013   0.00002  -0.00000   0.00002
 164        3S         -0.00000   0.00039  -0.00002   0.00024  -0.00037
 165        3PX         0.00007   0.00008   0.00002   0.00003   0.00011
 166        3PY        -0.00001   0.00025   0.00006   0.00006   0.00015
 167        3PZ         0.00002   0.00030  -0.00007   0.00003  -0.00002
 168        4XX        -0.00001   0.00008   0.00001  -0.00004   0.00006
 169        4YY         0.00002  -0.00005   0.00002  -0.00002   0.00007
 170        4ZZ         0.00002  -0.00007   0.00000  -0.00002   0.00008
 171        4XY         0.00001  -0.00000   0.00001   0.00000  -0.00003
 172        4XZ         0.00000  -0.00000   0.00000  -0.00000   0.00002
 173        4YZ        -0.00000  -0.00015   0.00000  -0.00000   0.00002
 174 14  O  1S          0.00002   0.00000  -0.00000  -0.00005  -0.00001
 175        2S          0.00000   0.00001  -0.00000  -0.00004  -0.00002
 176        2PX        -0.00002   0.00002  -0.00000   0.00003  -0.00000
 177        2PY        -0.00002   0.00000  -0.00002  -0.00004   0.00001
 178        2PZ        -0.00017   0.00001   0.00000   0.00000  -0.00001
 179        3S          0.00031  -0.00002   0.00002   0.00027   0.00008
 180        3PX        -0.00001  -0.00004   0.00002  -0.00009   0.00004
 181        3PY         0.00003  -0.00001   0.00009   0.00025  -0.00006
 182        3PZ         0.00039  -0.00002   0.00003   0.00018   0.00003
 183        4XX         0.00007   0.00001   0.00001  -0.00003  -0.00001
 184        4YY         0.00008   0.00003   0.00001  -0.00002  -0.00000
 185        4ZZ        -0.00016   0.00001   0.00002   0.00000  -0.00000
 186        4XY        -0.00001  -0.00000  -0.00001   0.00003  -0.00000
 187        4XZ        -0.00007  -0.00001  -0.00000   0.00002   0.00001
 188        4YZ        -0.00005  -0.00000   0.00000   0.00000  -0.00001
 189 15  H  1S          0.00001  -0.00001   0.00004  -0.00003  -0.00000
 190        2S         -0.00018  -0.00003   0.00010  -0.00001  -0.00000
 191        3PX         0.00000   0.00000  -0.00000  -0.00001  -0.00001
 192        3PY         0.00003  -0.00001  -0.00000  -0.00000   0.00000
 193        3PZ        -0.00001   0.00001   0.00006   0.00001   0.00001
 194 16  H  1S         -0.00011   0.00000  -0.00006   0.00032   0.00001
 195        2S         -0.00023  -0.00001   0.00009  -0.00089  -0.00008
 196        3PX         0.00001  -0.00000  -0.00000  -0.00010  -0.00001
 197        3PY         0.00000  -0.00000   0.00001   0.00008   0.00000
 198        3PZ        -0.00002   0.00000  -0.00001  -0.00010   0.00000
 199 17  H  1S         -0.00001  -0.00011  -0.00001  -0.00000   0.00036
 200        2S          0.00002  -0.00021   0.00010   0.00005  -0.00095
 201        3PX         0.00000  -0.00001   0.00001  -0.00000   0.00004
 202        3PY        -0.00000   0.00000  -0.00001  -0.00000   0.00003
 203        3PZ         0.00000  -0.00001   0.00002   0.00001  -0.00013
                           6         7         8         9        10
                           O         O         O         O         O
     Eigenvalues --   -19.13068 -19.11138 -19.11059 -19.10705 -10.29430
   1 1   C  1S         -0.00002   0.00003  -0.00003   0.00001   0.00106
   2        2S         -0.00009   0.00009  -0.00012   0.00004  -0.00026
   3        2PX         0.00007  -0.00006  -0.00004   0.00002  -0.00002
   4        2PY         0.00004  -0.00006   0.00006  -0.00001  -0.00009
   5        2PZ        -0.00002  -0.00001   0.00001  -0.00002  -0.00002
   6        3S          0.00010  -0.00026   0.00054  -0.00019   0.00562
   7        3PX        -0.00047   0.00044   0.00035  -0.00031   0.00018
   8        3PY        -0.00029   0.00043  -0.00032   0.00004  -0.00107
   9        3PZ        -0.00012  -0.00000   0.00029  -0.00015   0.00199
  10        4XX        -0.00003   0.00007  -0.00008   0.00001  -0.00009
  11        4YY        -0.00003   0.00004  -0.00007   0.00002  -0.00029
  12        4ZZ        -0.00003   0.00004  -0.00004  -0.00001  -0.00019
  13        4XY         0.00001   0.00001   0.00001   0.00001   0.00001
  14        4XZ         0.00001   0.00001   0.00000  -0.00002   0.00000
  15        4YZ         0.00000   0.00001  -0.00003   0.00001   0.00013
  16 2   H  1S          0.00001   0.00008  -0.00008   0.00004  -0.00006
  17        2S         -0.00008  -0.00010   0.00030  -0.00017  -0.00015
  18        3PX         0.00001  -0.00002  -0.00001   0.00001  -0.00001
  19        3PY        -0.00002  -0.00001   0.00001  -0.00000   0.00002
  20        3PZ        -0.00002  -0.00001   0.00002  -0.00001   0.00000
  21 3   H  1S          0.00005  -0.00006  -0.00003   0.00001  -0.00025
  22        2S          0.00030  -0.00028  -0.00018   0.00021  -0.00056
  23        3PX        -0.00001   0.00003  -0.00002   0.00000   0.00001
  24        3PY        -0.00002   0.00000   0.00003  -0.00001  -0.00003
  25        3PZ        -0.00000   0.00001  -0.00001  -0.00000   0.00000
  26 4   C  1S         -0.00003  -0.00001  -0.00002  -0.00003   0.99318
  27        2S         -0.00018  -0.00011  -0.00010  -0.00017   0.05043
  28        2PX         0.00001  -0.00001   0.00002  -0.00003  -0.00015
  29        2PY        -0.00002   0.00001   0.00003  -0.00002   0.00031
  30        2PZ         0.00005  -0.00005   0.00006  -0.00001   0.00062
  31        3S          0.00098   0.00066   0.00031   0.00117  -0.02039
  32        3PX        -0.00059  -0.00021   0.00003   0.00062  -0.00003
  33        3PY        -0.00010  -0.00024  -0.00079   0.00016  -0.00158
  34        3PZ        -0.00030   0.00011  -0.00044   0.00060  -0.00019
  35        4XX         0.00001   0.00001   0.00002  -0.00002  -0.00868
  36        4YY        -0.00002   0.00003  -0.00000  -0.00001  -0.00885
  37        4ZZ        -0.00002  -0.00001  -0.00005   0.00002  -0.00871
  38        4XY         0.00003   0.00002  -0.00003  -0.00002   0.00004
  39        4XZ         0.00002  -0.00000  -0.00001  -0.00001   0.00000
  40        4YZ         0.00002  -0.00001   0.00002   0.00003  -0.00000
  41 5   O  1S          0.00001  -0.00004  -0.00000   0.00001  -0.00014
  42        2S          0.00005  -0.00011  -0.00001   0.00002  -0.00040
  43        2PX        -0.00003   0.00003   0.00003  -0.00004  -0.00000
  44        2PY        -0.00003   0.00003  -0.00001  -0.00001   0.00003
  45        2PZ        -0.00001   0.00000  -0.00001  -0.00004   0.00011
  46        3S         -0.00015   0.00036   0.00026  -0.00020   0.00392
  47        3PX         0.00017  -0.00015  -0.00010   0.00019  -0.00003
  48        3PY         0.00008  -0.00010   0.00003   0.00004  -0.00014
  49        3PZ         0.00008  -0.00002  -0.00007   0.00037  -0.00095
  50        4XX         0.00006  -0.00009   0.00000   0.00004  -0.00016
  51        4YY         0.00003  -0.00008  -0.00001   0.00000  -0.00032
  52        4ZZ         0.00003  -0.00010   0.00003  -0.00007  -0.00067
  53        4XY        -0.00002   0.00004   0.00001  -0.00001   0.00001
  54        4XZ        -0.00002  -0.00001   0.00001   0.00000   0.00001
  55        4YZ        -0.00001   0.00000  -0.00001  -0.00002  -0.00027
  56 6   H  1S          0.00003  -0.00002   0.00004  -0.00005   0.00005
  57        2S         -0.00016   0.00010  -0.00024  -0.00036  -0.00025
  58        3PX         0.00001  -0.00001  -0.00000  -0.00010  -0.00003
  59        3PY        -0.00002   0.00002  -0.00000   0.00007  -0.00007
  60        3PZ         0.00001  -0.00001   0.00002   0.00006  -0.00013
  61 7   P  1S         -0.00000  -0.00000   0.00002   0.00001   0.00000
  62        2S         -0.00003  -0.00002  -0.00007  -0.00007  -0.00010
  63        2PX        -0.00000   0.00000   0.00001   0.00000   0.00002
  64        2PY        -0.00000   0.00000  -0.00000   0.00001  -0.00003
  65        2PZ        -0.00001  -0.00000   0.00002  -0.00001  -0.00001
  66        3S         -0.00010  -0.00009   0.00078   0.00067  -0.00015
  67        3PX         0.00005  -0.00001  -0.00006  -0.00003  -0.00043
  68        3PY         0.00002   0.00000  -0.00000  -0.00003   0.00034
  69        3PZ         0.00009   0.00002  -0.00022   0.00017   0.00005
  70        4S          0.00060   0.00017  -0.00305  -0.00304   0.00460
  71        4PX        -0.00022  -0.00011   0.00047   0.00002  -0.00097
  72        4PY         0.00009  -0.00003   0.00095   0.00012   0.00196
  73        4PZ        -0.00011  -0.00017   0.00208  -0.00213   0.00037
  74        5XX        -0.00003   0.00002  -0.00025  -0.00019   0.00003
  75        5YY        -0.00004  -0.00002  -0.00016  -0.00027   0.00005
  76        5ZZ        -0.00004  -0.00003  -0.00018  -0.00007   0.00002
  77        5XY        -0.00001   0.00003  -0.00000   0.00001  -0.00003
  78        5XZ        -0.00001  -0.00003   0.00001   0.00007   0.00002
  79        5YZ         0.00001  -0.00001   0.00012  -0.00011   0.00008
  80 8   P  1S          0.00002   0.00001  -0.00000  -0.00000   0.00000
  81        2S         -0.00003  -0.00009  -0.00001  -0.00003  -0.00009
  82        2PX        -0.00001  -0.00001  -0.00000   0.00000  -0.00003
  83        2PY        -0.00001   0.00001   0.00000  -0.00000  -0.00002
  84        2PZ         0.00002  -0.00001   0.00000   0.00001  -0.00001
  85        3S          0.00099   0.00061  -0.00005  -0.00007  -0.00005
  86        3PX         0.00008   0.00009  -0.00001  -0.00004   0.00047
  87        3PY         0.00008  -0.00013   0.00001   0.00002   0.00023
  88        3PZ        -0.00023   0.00017  -0.00002  -0.00008   0.00008
  89        4S         -0.00412  -0.00242  -0.00041   0.00066   0.00435
  90        4PX         0.00001  -0.00052  -0.00009   0.00034   0.00096
  91        4PY        -0.00078   0.00163  -0.00015  -0.00005   0.00179
  92        4PZ         0.00237  -0.00196   0.00028   0.00018   0.00032
  93        5XX        -0.00021  -0.00023   0.00000  -0.00002  -0.00008
  94        5YY        -0.00027  -0.00016  -0.00000  -0.00002  -0.00006
  95        5ZZ        -0.00007  -0.00019  -0.00003  -0.00003   0.00005
  96        5XY         0.00001  -0.00003  -0.00003   0.00002   0.00006
  97        5XZ         0.00003  -0.00000  -0.00003  -0.00003   0.00003
  98        5YZ         0.00004  -0.00011   0.00002  -0.00003  -0.00000
  99 9   O  1S         -0.00001   0.00005  -0.00066   0.99273   0.00005
 100        2S          0.00003  -0.00005   0.00000   0.02566   0.00019
 101        2PX        -0.00002   0.00001   0.00002  -0.00020   0.00004
 102        2PY        -0.00001   0.00001   0.00005   0.00023   0.00003
 103        2PZ        -0.00001  -0.00000   0.00001  -0.00071   0.00002
 104        3S         -0.00015   0.00021  -0.00016   0.01250  -0.00124
 105        3PX         0.00005  -0.00004  -0.00011  -0.00023  -0.00000
 106        3PY         0.00002  -0.00001  -0.00023   0.00023  -0.00031
 107        3PZ         0.00007  -0.00003  -0.00025  -0.00038   0.00014
 108        4XX         0.00002  -0.00003   0.00005  -0.00815   0.00016
 109        4YY         0.00003  -0.00005  -0.00000  -0.00814   0.00008
 110        4ZZ         0.00003  -0.00003   0.00010  -0.00815   0.00012
 111        4XY        -0.00001   0.00001  -0.00001  -0.00001  -0.00009
 112        4XZ        -0.00001   0.00000   0.00001   0.00001   0.00001
 113        4YZ         0.00001  -0.00001   0.00000   0.00000   0.00004
 114 10  O  1S         -0.00015   0.99272  -0.00069  -0.00006   0.00003
 115        2S          0.00003   0.02568  -0.00006   0.00001   0.00015
 116        2PX         0.00000  -0.00002  -0.00004  -0.00003   0.00001
 117        2PY         0.00004   0.00060   0.00001   0.00000   0.00001
 118        2PZ         0.00005  -0.00051   0.00003  -0.00000   0.00003
 119        3S         -0.00017   0.01268   0.00016  -0.00015  -0.00084
 120        3PX        -0.00003   0.00009   0.00012   0.00009  -0.00015
 121        3PY        -0.00002   0.00043   0.00001  -0.00003  -0.00035
 122        3PZ        -0.00041  -0.00024  -0.00012   0.00002  -0.00003
 123        4XX         0.00006  -0.00817  -0.00003   0.00002   0.00010
 124        4YY         0.00005  -0.00817  -0.00004  -0.00001   0.00004
 125        4ZZ         0.00008  -0.00819  -0.00003  -0.00002   0.00009
 126        4XY        -0.00001   0.00002  -0.00000   0.00001   0.00004
 127        4XZ        -0.00001  -0.00001  -0.00002   0.00000   0.00004
 128        4YZ        -0.00005  -0.00000  -0.00002  -0.00001  -0.00000
 129 11  O  1S          0.00000  -0.00004  -0.00001   0.00001   0.00002
 130        2S         -0.00015  -0.00010  -0.00003   0.00002   0.00011
 131        2PX        -0.00002   0.00003  -0.00002   0.00001  -0.00004
 132        2PY         0.00000   0.00001  -0.00000  -0.00000  -0.00004
 133        2PZ         0.00004  -0.00004   0.00001   0.00001   0.00003
 134        3S          0.00086   0.00059   0.00013  -0.00011  -0.00086
 135        3PX         0.00026   0.00001   0.00007  -0.00006  -0.00020
 136        3PY        -0.00012  -0.00019   0.00001   0.00002   0.00026
 137        3PZ        -0.00035   0.00024  -0.00006  -0.00004  -0.00009
 138        4XX        -0.00006  -0.00006  -0.00002   0.00002   0.00011
 139        4YY        -0.00008  -0.00010  -0.00003   0.00002   0.00002
 140        4ZZ        -0.00010  -0.00010  -0.00002   0.00003  -0.00002
 141        4XY         0.00000   0.00000   0.00001   0.00000   0.00004
 142        4XZ        -0.00003   0.00002  -0.00001   0.00000   0.00000
 143        4YZ        -0.00001   0.00003   0.00000  -0.00000   0.00002
 144 12  O  1S          0.00001  -0.00001   0.00004  -0.00006   0.00006
 145        2S          0.00002  -0.00001  -0.00004  -0.00014   0.00027
 146        2PX        -0.00001   0.00000   0.00000  -0.00002  -0.00000
 147        2PY        -0.00000  -0.00000   0.00003  -0.00002  -0.00001
 148        2PZ        -0.00000  -0.00001   0.00003  -0.00001   0.00004
 149        3S         -0.00011   0.00006   0.00027   0.00084  -0.00145
 150        3PX         0.00004   0.00001  -0.00014  -0.00005   0.00038
 151        3PY         0.00002   0.00002  -0.00025  -0.00004   0.00018
 152        3PZ         0.00000   0.00004  -0.00018   0.00023  -0.00045
 153        4XX         0.00002  -0.00002   0.00003  -0.00009   0.00016
 154        4YY         0.00001  -0.00002   0.00000  -0.00011   0.00016
 155        4ZZ         0.00001  -0.00002  -0.00001  -0.00017   0.00015
 156        4XY        -0.00000  -0.00001  -0.00000  -0.00001  -0.00004
 157        4XZ        -0.00000  -0.00000   0.00001  -0.00002  -0.00000
 158        4YZ        -0.00000  -0.00000  -0.00003   0.00004   0.00001
 159 13  O  1S          0.00002   0.00067   0.99272   0.00067   0.00003
 160        2S         -0.00005  -0.00001   0.02567   0.00001   0.00015
 161        2PX         0.00004   0.00003   0.00005  -0.00000  -0.00005
 162        2PY        -0.00000   0.00001   0.00053   0.00005   0.00003
 163        2PZ        -0.00001  -0.00002   0.00058  -0.00004  -0.00002
 164        3S          0.00013   0.00008   0.01269   0.00002  -0.00073
 165        3PX        -0.00014  -0.00010  -0.00006   0.00003   0.00028
 166        3PY         0.00001  -0.00003   0.00046  -0.00011  -0.00039
 167        3PZ         0.00002   0.00009   0.00029   0.00041  -0.00008
 168        4XX        -0.00002  -0.00003  -0.00818   0.00002   0.00010
 169        4YY        -0.00006  -0.00005  -0.00817   0.00000   0.00004
 170        4ZZ        -0.00006  -0.00003  -0.00820   0.00006   0.00008
 171        4XY        -0.00001   0.00001  -0.00002   0.00001  -0.00000
 172        4XZ        -0.00000  -0.00002   0.00000  -0.00000   0.00004
 173        4YZ         0.00002   0.00002  -0.00000   0.00005  -0.00002
 174 14  O  1S          0.99267   0.00019  -0.00006   0.00002   0.00005
 175        2S          0.02568   0.00010  -0.00013   0.00003   0.00022
 176        2PX         0.00014  -0.00001  -0.00002   0.00002   0.00001
 177        2PY         0.00010   0.00007   0.00000  -0.00001   0.00005
 178        2PZ         0.00075   0.00000  -0.00000   0.00001  -0.00001
 179        3S          0.01313  -0.00053   0.00060  -0.00016  -0.00117
 180        3PX         0.00019   0.00006   0.00009  -0.00009  -0.00019
 181        3PY         0.00028  -0.00039   0.00002   0.00004  -0.00036
 182        3PZ         0.00054   0.00017   0.00009  -0.00005  -0.00021
 183        4XX        -0.00824   0.00010  -0.00007   0.00003   0.00014
 184        4YY        -0.00826   0.00005  -0.00010   0.00003   0.00011
 185        4ZZ        -0.00829   0.00014  -0.00008   0.00003   0.00011
 186        4XY         0.00003  -0.00001  -0.00001   0.00001   0.00003
 187        4XZ         0.00000   0.00001   0.00000  -0.00001  -0.00002
 188        4YZ         0.00002  -0.00002   0.00001   0.00000  -0.00004
 189 15  H  1S         -0.00008   0.00007   0.00002  -0.00002  -0.00019
 190        2S          0.00012  -0.00005   0.00023  -0.00011  -0.00051
 191        3PX         0.00001  -0.00002   0.00002  -0.00000  -0.00001
 192        3PY        -0.00001  -0.00001  -0.00002   0.00001  -0.00004
 193        3PZ        -0.00000  -0.00000  -0.00001   0.00001   0.00001
 194 16  H  1S         -0.00008   0.00007  -0.00002  -0.00002   0.00002
 195        2S          0.00041  -0.00032   0.00005   0.00003  -0.00054
 196        3PX         0.00002  -0.00001   0.00000  -0.00000  -0.00008
 197        3PY        -0.00001   0.00003  -0.00001   0.00000   0.00001
 198        3PZ        -0.00002   0.00004   0.00000  -0.00001   0.00002
 199 17  H  1S          0.00001   0.00001  -0.00007   0.00007  -0.00001
 200        2S         -0.00006  -0.00003   0.00036  -0.00026  -0.00055
 201        3PX         0.00001   0.00000  -0.00004   0.00002   0.00005
 202        3PY         0.00000   0.00000  -0.00003   0.00003   0.00002
 203        3PZ        -0.00000   0.00001  -0.00002   0.00003  -0.00006
                          11        12        13        14        15
                           O         O         O         O         O
     Eigenvalues --   -10.20042  -6.65385  -6.64692  -4.81782  -4.81730
   1 1   C  1S          0.99295  -0.00004  -0.00003  -0.00004  -0.00002
   2        2S          0.05013  -0.00027  -0.00022  -0.00016  -0.00029
   3        2PX        -0.00007   0.00010  -0.00010   0.00003  -0.00003
   4        2PY        -0.00028  -0.00001  -0.00004   0.00011  -0.00017
   5        2PZ         0.00013   0.00007   0.00006   0.00001   0.00010
   6        3S         -0.01720   0.00121   0.00101   0.00015   0.00186
   7        3PX         0.00031  -0.00160   0.00167  -0.00039  -0.00165
   8        3PY         0.00154  -0.00173  -0.00120  -0.00092  -0.00134
   9        3PZ        -0.00094   0.00056   0.00054  -0.00103   0.00115
  10        4XX        -0.00887  -0.00006  -0.00001  -0.00013   0.00006
  11        4YY        -0.00903   0.00011   0.00011   0.00009   0.00015
  12        4ZZ        -0.00895  -0.00002  -0.00001  -0.00017   0.00009
  13        4XY         0.00001   0.00009  -0.00011  -0.00003   0.00022
  14        4XZ        -0.00000  -0.00011   0.00012   0.00003  -0.00020
  15        4YZ         0.00014  -0.00008  -0.00007   0.00006  -0.00012
  16 2   H  1S         -0.00003  -0.00021  -0.00016  -0.00022  -0.00009
  17        2S          0.00238   0.00060   0.00046  -0.00015   0.00051
  18        3PX        -0.00001   0.00002  -0.00005  -0.00001   0.00005
  19        3PY        -0.00013  -0.00001   0.00001  -0.00004   0.00000
  20        3PZ        -0.00018   0.00006   0.00005   0.00005   0.00002
  21 3   H  1S         -0.00011   0.00013  -0.00024   0.00006   0.00005
  22        2S          0.00225   0.00090   0.00018   0.00046   0.00049
  23        3PX         0.00018  -0.00002  -0.00003  -0.00006   0.00005
  24        3PY         0.00008   0.00002  -0.00004   0.00004   0.00006
  25        3PZ         0.00008  -0.00006   0.00005   0.00002  -0.00009
  26 4   C  1S         -0.00126   0.00013   0.00016  -0.00000   0.00014
  27        2S         -0.00005   0.00096   0.00109   0.00038   0.00207
  28        2PX         0.00001   0.00006  -0.00006   0.00023  -0.00008
  29        2PY        -0.00011  -0.00007  -0.00007  -0.00027   0.00008
  30        2PZ         0.00003  -0.00008  -0.00004  -0.00014  -0.00005
  31        3S          0.00329  -0.00487  -0.00547  -0.00041  -0.00863
  32        3PX         0.00017   0.00194  -0.00208  -0.00098   0.00511
  33        3PY         0.00193   0.00064   0.00080   0.00302   0.00033
  34        3PZ        -0.00129   0.00001  -0.00029   0.00178  -0.00138
  35        4XX        -0.00010   0.00005   0.00005   0.00002  -0.00032
  36        4YY        -0.00032   0.00018   0.00022  -0.00022   0.00015
  37        4ZZ        -0.00021   0.00014   0.00017   0.00020   0.00006
  38        4XY         0.00000  -0.00016   0.00017  -0.00023  -0.00056
  39        4XZ        -0.00000  -0.00001   0.00000  -0.00018   0.00001
  40        4YZ         0.00014   0.00000  -0.00005  -0.00006  -0.00010
  41 5   O  1S         -0.00001  -0.00008  -0.00005   0.00002  -0.00015
  42        2S         -0.00007  -0.00041  -0.00027   0.00011  -0.00077
  43        2PX        -0.00001   0.00012  -0.00004   0.00001   0.00015
  44        2PY        -0.00004   0.00004  -0.00002   0.00014   0.00001
  45        2PZ         0.00008   0.00000   0.00003  -0.00001   0.00004
  46        3S         -0.00010   0.00210   0.00170  -0.00121   0.00432
  47        3PX        -0.00004  -0.00110   0.00058   0.00017  -0.00171
  48        3PY         0.00022  -0.00050  -0.00040  -0.00065  -0.00073
  49        3PZ        -0.00027  -0.00084  -0.00097   0.00068  -0.00185
  50        4XX        -0.00017  -0.00022  -0.00012  -0.00001  -0.00038
  51        4YY        -0.00001  -0.00021  -0.00009   0.00019  -0.00037
  52        4ZZ         0.00007  -0.00021  -0.00006  -0.00008  -0.00025
  53        4XY         0.00003   0.00009   0.00000  -0.00001   0.00013
  54        4XZ        -0.00001   0.00013  -0.00012  -0.00001   0.00026
  55        4YZ        -0.00006   0.00011   0.00008   0.00004   0.00019
  56 6   H  1S          0.00010  -0.00008  -0.00005  -0.00024  -0.00003
  57        2S          0.00018   0.00073   0.00108  -0.00009   0.00104
  58        3PX        -0.00003  -0.00005   0.00001   0.00002  -0.00008
  59        3PY         0.00001   0.00008  -0.00007  -0.00000   0.00009
  60        3PZ        -0.00002  -0.00008  -0.00007   0.00001  -0.00010
  61 7   P  1S         -0.00000   0.00002  -0.27420  -0.00001  -0.00000
  62        2S         -0.00007  -0.00018   1.02395  -0.00007  -0.00008
  63        2PX        -0.00000   0.00004   0.00116  -0.00082  -0.00094
  64        2PY         0.00002  -0.00000   0.00373   0.00024  -0.00065
  65        2PZ         0.00001   0.00000  -0.00075  -0.00012   0.00018
  66        3S         -0.00016  -0.00069   0.07524  -0.00073  -0.00037
  67        3PX         0.00005  -0.00018  -0.00053  -0.00062  -0.00025
  68        3PY        -0.00028   0.00005   0.00113   0.00036  -0.00015
  69        3PZ        -0.00008   0.00001   0.00000  -0.00008   0.00001
  70        4S          0.00104   0.00229  -0.01188   0.00345   0.00063
  71        4PX        -0.00037  -0.00162   0.00215  -0.00170  -0.00120
  72        4PY         0.00028  -0.00073  -0.00086  -0.00062  -0.00100
  73        4PZ        -0.00039  -0.00025   0.00047  -0.00057   0.00001
  74        5XX        -0.00012   0.00037  -0.01731   0.00061   0.00034
  75        5YY        -0.00010  -0.00005  -0.01720   0.00005  -0.00021
  76        5ZZ        -0.00006   0.00002  -0.01710   0.00006  -0.00006
  77        5XY         0.00001  -0.00004   0.00008  -0.00009   0.00004
  78        5XZ         0.00001  -0.00004  -0.00016   0.00000  -0.00009
  79        5YZ         0.00002   0.00002   0.00003  -0.00003   0.00002
  80 8   P  1S         -0.00001  -0.27419  -0.00003  -0.00079   0.00083
  81        2S         -0.00012   1.02397  -0.00003   0.00323  -0.00306
  82        2PX         0.00002  -0.00072  -0.00003   0.77014   0.61978
  83        2PY        -0.00001   0.00373  -0.00001  -0.51733   0.70328
  84        2PZ         0.00000   0.00102  -0.00001  -0.35061   0.32363
  85        3S         -0.00051   0.07561  -0.00079   0.00081   0.00196
  86        3PX        -0.00021   0.00062   0.00012   0.02366   0.01943
  87        3PY        -0.00004   0.00123   0.00007  -0.01579   0.02189
  88        3PZ        -0.00001   0.00012   0.00003  -0.01053   0.01031
  89        4S          0.00211  -0.01319   0.00282  -0.00434  -0.00286
  90        4PX         0.00003  -0.00204   0.00183  -0.00615  -0.00429
  91        4PY         0.00151  -0.00195  -0.00058   0.00271  -0.00404
  92        4PZ        -0.00047   0.00067  -0.00026   0.00163  -0.00113
  93        5XX        -0.00010  -0.01731   0.00036  -0.00029   0.00068
  94        5YY        -0.00006  -0.01724  -0.00009  -0.00069   0.00013
  95        5ZZ        -0.00006  -0.01735   0.00002   0.00079  -0.00227
  96        5XY        -0.00005   0.00001   0.00005   0.00186   0.00129
  97        5XZ        -0.00002   0.00013   0.00003   0.00075  -0.00005
  98        5YZ        -0.00001   0.00000  -0.00001  -0.00078   0.00078
  99 9   O  1S         -0.00001   0.00002  -0.00013  -0.00000   0.00000
 100        2S         -0.00002   0.00010   0.00060   0.00000   0.00003
 101        2PX        -0.00000  -0.00002  -0.00012   0.00002  -0.00000
 102        2PY         0.00002  -0.00003   0.00019  -0.00003  -0.00003
 103        2PZ         0.00000   0.00000  -0.00067  -0.00001   0.00002
 104        3S          0.00010  -0.00053  -0.00338  -0.00011  -0.00018
 105        3PX         0.00001   0.00025   0.00022   0.00005   0.00019
 106        3PY        -0.00006   0.00011  -0.00063   0.00018   0.00014
 107        3PZ        -0.00002   0.00001   0.00216   0.00005  -0.00013
 108        4XX        -0.00000   0.00006   0.00023   0.00000   0.00001
 109        4YY        -0.00003   0.00002   0.00020  -0.00006  -0.00003
 110        4ZZ        -0.00001   0.00007   0.00087  -0.00001   0.00004
 111        4XY        -0.00000   0.00002  -0.00003  -0.00000   0.00002
 112        4XZ         0.00001  -0.00001   0.00025   0.00000  -0.00000
 113        4YZ        -0.00001  -0.00005  -0.00021  -0.00005  -0.00006
 114 10  O  1S         -0.00004  -0.00016   0.00001  -0.00025   0.00015
 115        2S         -0.00015   0.00054   0.00006  -0.00026  -0.00073
 116        2PX        -0.00000  -0.00008  -0.00006   0.00006   0.00008
 117        2PY         0.00001   0.00054  -0.00003   0.00007  -0.00035
 118        2PZ         0.00002  -0.00054  -0.00004  -0.00023   0.00046
 119        3S          0.00074  -0.00309  -0.00061   0.00146   0.00304
 120        3PX         0.00004   0.00042   0.00009  -0.00035  -0.00037
 121        3PY        -0.00003  -0.00146   0.00007   0.00020   0.00117
 122        3PZ        -0.00012   0.00154   0.00022   0.00067  -0.00181
 123        4XX        -0.00013   0.00007   0.00008  -0.00035  -0.00024
 124        4YY        -0.00013   0.00063   0.00001  -0.00002  -0.00055
 125        4ZZ        -0.00012   0.00048  -0.00004  -0.00044  -0.00012
 126        4XY         0.00002   0.00002   0.00001  -0.00022  -0.00013
 127        4XZ        -0.00001  -0.00000   0.00001   0.00016   0.00015
 128        4YZ        -0.00002  -0.00051  -0.00005  -0.00007   0.00010
 129 11  O  1S          0.00006  -0.00000   0.00001   0.00009  -0.00017
 130        2S          0.00028   0.00039   0.00003  -0.00146  -0.00050
 131        2PX         0.00006   0.00001   0.00006  -0.00037  -0.00001
 132        2PY        -0.00001  -0.00017   0.00003   0.00031  -0.00003
 133        2PZ        -0.00001  -0.00012  -0.00001   0.00023   0.00007
 134        3S         -0.00126  -0.00275  -0.00004   0.00646   0.00214
 135        3PX        -0.00053  -0.00044  -0.00028   0.00285  -0.00022
 136        3PY         0.00015   0.00132  -0.00013  -0.00254  -0.00004
 137        3PZ         0.00003   0.00143   0.00003  -0.00235  -0.00057
 138        4XX         0.00016   0.00035   0.00001  -0.00047  -0.00081
 139        4YY         0.00020   0.00028   0.00005  -0.00049  -0.00003
 140        4ZZ         0.00022   0.00001   0.00005  -0.00032  -0.00029
 141        4XY        -0.00002   0.00007   0.00001  -0.00044   0.00001
 142        4XZ         0.00005  -0.00021   0.00001   0.00008   0.00004
 143        4YZ        -0.00004   0.00013   0.00001  -0.00001   0.00027
 144 12  O  1S         -0.00002  -0.00000   0.00005   0.00001  -0.00001
 145        2S         -0.00006  -0.00002   0.00064   0.00003  -0.00004
 146        2PX         0.00005  -0.00007  -0.00012  -0.00007  -0.00007
 147        2PY         0.00001   0.00002  -0.00019   0.00000   0.00003
 148        2PZ         0.00003  -0.00002  -0.00003  -0.00002  -0.00002
 149        3S          0.00015   0.00024  -0.00384   0.00003   0.00040
 150        3PX        -0.00008   0.00028   0.00130   0.00032   0.00021
 151        3PY        -0.00003  -0.00009   0.00170   0.00003  -0.00018
 152        3PZ        -0.00015   0.00013   0.00036   0.00008   0.00020
 153        4XX        -0.00005  -0.00003   0.00055  -0.00000  -0.00004
 154        4YY        -0.00009  -0.00000   0.00050   0.00001   0.00001
 155        4ZZ        -0.00003  -0.00000   0.00007   0.00003  -0.00001
 156        4XY         0.00001  -0.00001   0.00001  -0.00003   0.00001
 157        4XZ         0.00002  -0.00001  -0.00005  -0.00001  -0.00000
 158        4YZ        -0.00003  -0.00001   0.00001  -0.00001  -0.00001
 159 13  O  1S          0.00006   0.00002  -0.00020  -0.00001   0.00002
 160        2S          0.00024   0.00008   0.00038  -0.00001   0.00009
 161        2PX        -0.00003   0.00008   0.00008   0.00016   0.00001
 162        2PY         0.00007  -0.00003   0.00046  -0.00003  -0.00005
 163        2PZ         0.00000   0.00004   0.00060   0.00002   0.00003
 164        3S         -0.00113  -0.00075  -0.00219  -0.00049  -0.00059
 165        3PX         0.00013  -0.00021  -0.00043  -0.00055   0.00005
 166        3PY        -0.00035   0.00006  -0.00127   0.00005   0.00019
 167        3PZ        -0.00009  -0.00021  -0.00172  -0.00011  -0.00017
 168        4XX         0.00020   0.00011  -0.00006   0.00006   0.00009
 169        4YY         0.00016   0.00000   0.00037  -0.00011   0.00006
 170        4ZZ         0.00021  -0.00002   0.00045  -0.00011   0.00003
 171        4XY         0.00002  -0.00002  -0.00000  -0.00003   0.00000
 172        4XZ         0.00000   0.00001   0.00001  -0.00001   0.00002
 173        4YZ        -0.00003   0.00005   0.00049   0.00007   0.00004
 174 14  O  1S          0.00005  -0.00024   0.00004  -0.00028   0.00027
 175        2S          0.00022   0.00019   0.00017  -0.00007  -0.00115
 176        2PX         0.00001   0.00006  -0.00000   0.00012  -0.00011
 177        2PY         0.00002   0.00005  -0.00003  -0.00003   0.00000
 178        2PZ        -0.00001   0.00072   0.00001   0.00033  -0.00088
 179        3S         -0.00116  -0.00132  -0.00094   0.00056   0.00501
 180        3PX        -0.00008   0.00009  -0.00020  -0.00051   0.00032
 181        3PY        -0.00028   0.00001   0.00012   0.00037  -0.00008
 182        3PZ        -0.00010  -0.00211  -0.00015  -0.00064   0.00314
 183        4XX         0.00011  -0.00009   0.00011  -0.00038  -0.00039
 184        4YY         0.00014  -0.00014   0.00005  -0.00022  -0.00037
 185        4ZZ         0.00017   0.00061   0.00011   0.00008  -0.00065
 186        4XY         0.00000   0.00003   0.00000  -0.00002  -0.00010
 187        4XZ         0.00001   0.00025  -0.00002  -0.00024  -0.00027
 188        4YZ        -0.00003   0.00014   0.00003   0.00026  -0.00025
 189 15  H  1S         -0.00006  -0.00023   0.00013   0.00009  -0.00027
 190        2S          0.00245   0.00049   0.00071  -0.00044   0.00049
 191        3PX        -0.00018   0.00004   0.00000   0.00005   0.00001
 192        3PY         0.00007  -0.00006   0.00002   0.00013  -0.00013
 193        3PZ         0.00007   0.00005  -0.00007   0.00000   0.00008
 194 16  H  1S         -0.00001   0.00056  -0.00002  -0.00077  -0.00013
 195        2S         -0.00058   0.00138   0.00016  -0.00129  -0.00065
 196        3PX        -0.00006   0.00015   0.00002  -0.00023   0.00002
 197        3PY         0.00004  -0.00018   0.00001   0.00023   0.00007
 198        3PZ        -0.00005   0.00007  -0.00002  -0.00001   0.00003
 199 17  H  1S         -0.00011   0.00006   0.00061   0.00007   0.00003
 200        2S         -0.00017  -0.00005   0.00111  -0.00027   0.00024
 201        3PX         0.00004  -0.00002  -0.00013  -0.00000  -0.00004
 202        3PY         0.00001   0.00001  -0.00016   0.00002   0.00001
 203        3PZ        -0.00002  -0.00000   0.00015  -0.00002   0.00001
                          16        17        18        19        20
                           O         O         O         O         O
     Eigenvalues --    -4.81510  -4.81114  -4.81006  -4.80842  -1.08341
   1 1   C  1S         -0.00003  -0.00004  -0.00005  -0.00002  -0.01432
   2        2S          0.00008  -0.00031  -0.00043  -0.00006   0.02540
   3        2PX         0.00010   0.00001  -0.00002   0.00002   0.00097
   4        2PY         0.00023  -0.00017  -0.00017   0.00006  -0.01190
   5        2PZ        -0.00015   0.00010   0.00013  -0.00001   0.01751
   6        3S         -0.00219   0.00340   0.00269  -0.00005   0.01783
   7        3PX        -0.00021   0.00016   0.00207   0.00018  -0.00233
   8        3PY         0.00168  -0.00116  -0.00193   0.00090  -0.00679
   9        3PZ        -0.00071   0.00163   0.00117   0.00081   0.00565
  10        4XX        -0.00011   0.00000   0.00002  -0.00003  -0.00099
  11        4YY        -0.00033   0.00001   0.00019  -0.00027   0.00103
  12        4ZZ        -0.00007   0.00008   0.00004   0.00009   0.00224
  13        4XY        -0.00011  -0.00007  -0.00023   0.00000  -0.00013
  14        4XZ         0.00002   0.00005   0.00021   0.00007   0.00003
  15        4YZ         0.00006  -0.00013  -0.00012  -0.00006  -0.00353
  16 2   H  1S          0.00018  -0.00003  -0.00020   0.00012   0.00322
  17        2S         -0.00082   0.00030   0.00060  -0.00004   0.00082
  18        3PX         0.00009  -0.00000  -0.00006  -0.00008   0.00009
  19        3PY         0.00007   0.00003   0.00001   0.00008   0.00033
  20        3PZ        -0.00010  -0.00001   0.00004  -0.00007   0.00031
  21 3   H  1S          0.00004  -0.00022  -0.00035  -0.00008   0.00618
  22        2S          0.00004   0.00054   0.00046  -0.00033   0.00559
  23        3PX        -0.00003   0.00001  -0.00004   0.00001  -0.00064
  24        3PY        -0.00008  -0.00010  -0.00009  -0.00004  -0.00091
  25        3PZ        -0.00001  -0.00002   0.00007   0.00001   0.00050
  26 4   C  1S          0.00004   0.00004   0.00015   0.00007  -0.07323
  27        2S          0.00009  -0.00019   0.00208   0.00049   0.13708
  28        2PX         0.00006   0.00027   0.00008   0.00021   0.00480
  29        2PY        -0.00029   0.00044   0.00013   0.00012   0.02744
  30        2PZ         0.00038  -0.00007  -0.00011   0.00030   0.08994
  31        3S         -0.00063  -0.00102  -0.00874  -0.00295   0.06148
  32        3PX        -0.00074  -0.00111  -0.00518  -0.00237   0.00184
  33        3PY         0.00244  -0.00480  -0.00001  -0.00139  -0.01918
[...]
  34         O                -0.453204          1.871866
  35         O                -0.450486          2.102351
  36         O                -0.421139          1.939848
  37         O                -0.410222          1.582424
  38         O                -0.404829          1.990577
  39         O                -0.394455          1.788839
  40         O                -0.380452          1.864345
  41         O                -0.374574          2.452644
  42         O                -0.367898          2.477008
  43         O                -0.339881          2.197694
  44         O                -0.331688          2.166428
  45         O                -0.317993          2.174222
  46         O                -0.310645          2.152184
  47         O                -0.298007          2.261711
  48         O                -0.286132          2.126715
  49         O                -0.279450          2.232960
  50         O                -0.274092          2.307391
  51         O                -0.271249          2.275660
  52         O                -0.266375          2.294607
  53         V                -0.210901          2.241020
  54         V                 0.051419          1.999986
  55         V                 0.067367          1.986993
  56         V                 0.082649          1.711580
  57         V                 0.085693          1.754118
  58         V                 0.124464          2.087048
  59         V                 0.134240          2.576466
  60         V                 0.143770          1.409576
  61         V                 0.145447          1.875308
  62         V                 0.150422          1.706672
  63         V                 0.169643          2.217521
  64         V                 0.182274          1.604279
  65         V                 0.189341          1.955047
  66         V                 0.202578          1.831090
  67         V                 0.222040          1.828622
  68         V                 0.228697          2.463997
  69         V                 0.254804          2.056988
  70         V                 0.330817          2.459887
  71         V                 0.332292          2.263525
  72         V                 0.374132          2.360261
  73         V                 0.376052          2.297319
  74         V                 0.404522          2.247816
  75         V                 0.408336          2.010991
  76         V                 0.444755          2.245591
  77         V                 0.466538          2.474207
  78         V                 0.533380          2.226422
  79         V                 0.545794          2.528806
  80         V                 0.562622          2.129933
  81         V                 0.615758          2.315205
  82         V                 0.625142          2.489018
  83         V                 0.641795          2.406706
  84         V                 0.697384          2.174802
  85         V                 0.734241          2.614436
  86         V                 0.743184          2.307566
  87         V                 0.770743          2.618463
  88         V                 0.777517          2.575474
  89         V                 0.789299          2.640521
  90         V                 0.817520          2.492457
  91         V                 0.819960          2.607693
  92         V                 0.835933          2.582859
  93         V                 0.862273          2.568165
  94         V                 0.878699          2.714585
  95         V                 0.885587          2.459989
  96         V                 0.892445          2.791442
  97         V                 0.906818          2.772651
  98         V                 0.913127          2.750547
  99         V                 0.922590          2.666215
 100         V                 0.958491          3.015362
 101         V                 0.981408          3.101605
 102         V                 0.994619          2.944772
 103         V                 0.999329          3.024239
 104         V                 1.013477          2.977203
 105         V                 1.023947          3.332232
 106         V                 1.033474          3.295495
 107         V                 1.039155          2.805571
 108         V                 1.048023          3.290019
 109         V                 1.055760          3.394018
 110         V                 1.065517          3.384201
 111         V                 1.081900          3.276870
 112         V                 1.095277          3.003110
 113         V                 1.131613          3.493054
 114         V                 1.146734          3.558891
 115         V                 1.173316          3.886043
 116         V                 1.173653          3.992499
 117         V                 1.197597          3.829397
 118         V                 1.217530          3.376865
 119         V                 1.229313          3.406890
 120         V                 1.258264          3.107712
 121         V                 1.306113          2.982230
 122         V                 1.329472          2.885876
 123         V                 1.380771          2.754486
 124         V                 1.400787          2.690001
 125         V                 1.433645          2.741589
 126         V                 1.455683          2.769969
 127         V                 1.484581          2.761469
 128         V                 1.518695          2.724913
 129         V                 1.566362          2.681502
 130         V                 1.577626          2.669964
 131         V                 1.612577          2.803119
 132         V                 1.616600          2.745147
 133         V                 1.654944          2.799183
 134         V                 1.681089          2.878456
 135         V                 1.691479          2.857395
 136         V                 1.730277          2.862014
 137         V                 1.772584          2.944224
 138         V                 1.792949          2.956036
 139         V                 1.814449          2.906783
 140         V                 1.823309          2.885480
 141         V                 1.831359          2.879219
 142         V                 1.836271          2.973039
 143         V                 1.846857          3.090979
 144         V                 1.855004          2.980149
 145         V                 1.861817          3.042704
 146         V                 1.877964          3.028017
 147         V                 1.900255          3.206746
 148         V                 1.902168          3.006893
 149         V                 1.931518          3.113799
 150         V                 1.974510          3.425040
 151         V                 1.981367          3.370324
 152         V                 2.001877          3.274362
 153         V                 2.012794          3.590038
 154         V                 2.039525          2.945879
 155         V                 2.052361          3.276099
 156         V                 2.090188          3.276633
 157         V                 2.094261          3.361219
 158         V                 2.108850          3.363236
 159         V                 2.138068          3.442938
 160         V                 2.150014          3.438710
 161         V                 2.178446          3.369584
 162         V                 2.246076          3.579225
 163         V                 2.264159          3.569005
 164         V                 2.301157          3.529627
 165         V                 2.347046          3.806499
 166         V                 2.370541          3.753925
 167         V                 2.392138          3.785556
 168         V                 2.417484          3.775739
 169         V                 2.468686          3.664587
 170         V                 2.478157          3.832565
 171         V                 2.503539          4.582991
 172         V                 2.518734          4.220793
 173         V                 2.635197          3.600340
 174         V                 2.636921          3.634017
 175         V                 2.644201          3.633808
 176         V                 2.696943          3.819555
 177         V                 2.712563          3.807594
 178         V                 2.724261          3.902544
 179         V                 2.758606          4.356193
 180         V                 2.773630          4.408666
 181         V                 2.803906          4.391234
 182         V                 2.833858          4.758398
 183         V                 2.838664          4.693065
 184         V                 2.862759          4.005672
 185         V                 2.900536          4.422216
 186         V                 2.975614          4.488610
 187         V                 3.201539          4.962421
 188         V                 3.372987          6.385955
 189         V                 3.379308          6.415281
 190         V                 3.424316          5.416590
 191         V                 3.437362          5.459433
 192         V                 3.450719          6.038913
 193         V                 3.503999          9.864285
 194         V                 3.554805         10.260960
 195         V                 3.803838          9.517510
 196         V                 3.845056         10.142652
 197         V                 3.896691          9.926542
 198         V                 3.942686         10.418960
 199         V                 4.002092         10.590864
 200         V                 4.097744         10.527207
 201         V                 4.198593         10.633113
 202         V                 4.348585         10.557523
 203         V                 4.557036         10.292920
 Total kinetic energy from orbitals= 1.281291232648D+03
                          Isotropic Fermi Contact Couplings
        Atom                 a.u.       MegaHertz       Gauss      10(-4) cm-1
     1  C(13)             -0.00401      -4.50576      -1.60777      -1.50296
     2  H(1)               0.00051       2.29969       0.82059       0.76709
     3  H(1)               0.00540      24.12084       8.60692       8.04585
     4  C(13)             -0.00623      -6.99867      -2.49730      -2.33451
     5  O(17)              0.04347     -26.35297      -9.40340      -8.79040
     6  H(1)              -0.00259     -11.56247      -4.12578      -3.85683
     7  P(31)             -0.00936     -16.95334      -6.04937      -5.65503
     8  P(31)             -0.03389     -61.37073     -21.89860     -20.47107
     9  O(17)             -0.00117       0.71141       0.25385       0.23730
    10  O(17)              0.00359      -2.17538      -0.77623      -0.72563
    11  O(17)              0.00299      -1.81513      -0.64769      -0.60546
    12  O(17)              0.00556      -3.36999      -1.20250      -1.12411
    13  O(17)              0.00883      -5.35058      -1.90922      -1.78476
    14  O(17)              0.01734     -10.51230      -3.75105      -3.50653
    15  H(1)               0.00522      23.32621       8.32337       7.78079
    16  H(1)              -0.00063      -2.80962      -1.00254      -0.93719
    17  H(1)              -0.00020      -0.88056      -0.31420      -0.29372
 --------------------------------------------------------
       Center         ----  Spin Dipole Couplings  ----
                      3XX-RR        3YY-RR        3ZZ-RR
 --------------------------------------------------------
     1   Atom       -0.002956     -0.002583      0.005539
     2   Atom       -0.003377     -0.000582      0.003958
     3   Atom       -0.002345      0.002625     -0.000280
     4   Atom        0.302299     -0.147978     -0.154321
     5   Atom        0.711579     -0.257291     -0.454288
     6   Atom       -0.001466      0.010245     -0.008779
     7   Atom        0.000676      0.039394     -0.040069
     8   Atom       -0.012848      0.061116     -0.048268
     9   Atom        0.094683     -0.084794     -0.009889
    10   Atom        0.238444     -0.076181     -0.162263
    11   Atom        0.046645     -0.037674     -0.008971
    12   Atom        0.099115     -0.048575     -0.050540
    13   Atom        0.142973      0.006157     -0.149130
    14   Atom        0.595256     -0.177268     -0.417987
    15   Atom       -0.002563      0.005449     -0.002887
    16   Atom        0.002391     -0.004165      0.001773
    17   Atom        0.000763     -0.004448      0.003685
 --------------------------------------------------------
                        XY            XZ            YZ
 --------------------------------------------------------
     1   Atom        0.008294     -0.013229     -0.015626
     2   Atom        0.002779      0.000497     -0.003004
     3   Atom        0.004016     -0.000065     -0.003281
     4   Atom        0.103716     -0.030351     -0.004729
     5   Atom        0.577993     -0.277907     -0.136588
     6   Atom       -0.020607      0.018591     -0.029841
     7   Atom       -0.062810     -0.006294      0.015873
     8   Atom        0.108613      0.050987      0.047912
     9   Atom        0.037842      0.124999      0.026556
    10   Atom        0.245413     -0.140693     -0.071134
    11   Atom       -0.088621     -0.102871      0.066474
    12   Atom        0.033075     -0.025483     -0.004399
    13   Atom       -0.246465      0.110405     -0.087099
    14   Atom        0.474180      0.045904      0.017736
    15   Atom       -0.004377      0.002735     -0.004184
    16   Atom       -0.006390      0.003918     -0.001321
    17   Atom        0.001519     -0.002241     -0.000824
 --------------------------------------------------------


 ---------------------------------------------------------------------------------
              Anisotropic Spin Dipole Couplings in Principal Axis System
 ---------------------------------------------------------------------------------

       Atom             a.u.   MegaHertz   Gauss  10(-4) cm-1        Axes

              Baa    -0.0152    -2.033    -0.726    -0.678  0.2993  0.6596  0.6895
     1 C(13)  Bbb    -0.0108    -1.453    -0.519    -0.485  0.8283 -0.5383  0.1555
              Bcc     0.0260     3.487     1.244     1.163 -0.4737 -0.5245  0.7074
 
              Baa    -0.0055    -2.960    -1.056    -0.987  0.7871 -0.5752 -0.2229
     2 H(1)   Bbb     0.0000     0.008     0.003     0.003  0.6088  0.6661  0.4308
              Bcc     0.0055     2.952     1.053     0.985 -0.0993 -0.4748  0.8745
 
              Baa    -0.0052    -2.757    -0.984    -0.920  0.7626 -0.5418 -0.3534
     3 H(1)   Bbb    -0.0010    -0.552    -0.197    -0.184  0.5170  0.1823  0.8363
              Bcc     0.0062     3.310     1.181     1.104  0.3887  0.8205 -0.4191
 
              Baa    -0.1710   -22.941    -8.186    -7.652 -0.2201  0.9672 -0.1265
     4 C(13)  Bbb    -0.1560   -20.938    -7.471    -6.984  0.0345  0.1374  0.9899
              Bcc     0.3270    43.879    15.657    14.637  0.9749  0.2135 -0.0636
 
              Baa    -0.5302    38.362    13.688    12.796 -0.2933  0.8451  0.4469
     5 O(17)  Bbb    -0.5151    37.270    13.299    12.432  0.3563 -0.3372  0.8714
              Bcc     1.0452   -75.632   -26.987   -25.228  0.8871  0.4149 -0.2022
 
              Baa    -0.0311   -16.568    -5.912    -5.526 -0.1603  0.5243  0.8363
     6 H(1)   Bbb    -0.0166    -8.837    -3.153    -2.948  0.8563  0.4953 -0.1464
              Bcc     0.0476    25.405     9.065     8.474 -0.4910  0.6927 -0.5284
 
              Baa    -0.0486   -10.509    -3.750    -3.506  0.6264  0.5472 -0.5552
     7 P(31)  Bbb    -0.0393    -8.491    -3.030    -2.832  0.5144  0.2449  0.8218
              Bcc     0.0879    19.001     6.780     6.338 -0.5856  0.8004  0.1281
 
              Baa    -0.0970   -20.971    -7.483    -6.995  0.8015 -0.4223 -0.4234
     8 P(31)  Bbb    -0.0644   -13.925    -4.969    -4.645  0.1911 -0.4900  0.8505
              Bcc     0.1614    34.896    12.452    11.640  0.5666  0.7626  0.3120
 
              Baa    -0.0940     6.804     2.428     2.270 -0.3362 -0.6314  0.6987
     9 O(17)  Bbb    -0.0918     6.639     2.369     2.215 -0.4629  0.7569  0.4613
              Bcc     0.1858   -13.443    -4.797    -4.484  0.8202  0.1684  0.5468
 
              Baa    -0.2133    15.437     5.508     5.149 -0.5284  0.6863 -0.4997
    10 O(17)  Bbb    -0.2023    14.636     5.222     4.882 -0.0498  0.5625  0.8253
              Bcc     0.4156   -30.073   -10.731   -10.031  0.8475  0.4610 -0.2631
 
              Baa    -0.0938     6.790     2.423     2.265  0.4491  0.8815 -0.1460
    11 O(17)  Bbb    -0.0876     6.337     2.261     2.114  0.5428 -0.1394  0.8282
              Bcc     0.1814   -13.127    -4.684    -4.379  0.7097 -0.4512 -0.5410
 
              Baa    -0.0563     4.073     1.453     1.359 -0.2588  0.8083 -0.5289
    12 O(17)  Bbb    -0.0540     3.911     1.396     1.305  0.0195  0.5518  0.8337
              Bcc     0.1103    -7.984    -2.849    -2.663  0.9657  0.2054 -0.1586
 
              Baa    -0.1882    13.616     4.858     4.542  0.0031  0.4123  0.9110
    13 O(17)  Bbb    -0.1804    13.051     4.657     4.353  0.6410  0.6984 -0.3183
              Bcc     0.3685   -26.667    -9.515    -8.895  0.7675 -0.5850  0.2621
 
              Baa    -0.4207    30.440    10.862    10.154 -0.1206  0.1635  0.9791
    14 O(17)  Bbb    -0.4018    29.078    10.376     9.699 -0.4134  0.8885 -0.1993
              Bcc     0.8225   -59.517   -21.237   -19.853  0.9026  0.4288  0.0395
 
              Baa    -0.0055    -2.916    -1.040    -0.973 -0.6778  0.0100  0.7352
    15 H(1)   Bbb    -0.0039    -2.083    -0.743    -0.695  0.6210  0.5433  0.5650
              Bcc     0.0094     4.999     1.784     1.667 -0.3938  0.8395 -0.3745
 
              Baa    -0.0082    -4.356    -1.554    -1.453  0.5429  0.8334 -0.1033
    16 H(1)   Bbb    -0.0005    -0.270    -0.096    -0.090 -0.3789  0.3528  0.8556
              Bcc     0.0087     4.626     1.651     1.543  0.7495 -0.4254  0.5073
 
              Baa    -0.0049    -2.595    -0.926    -0.866 -0.2502  0.9678  0.0278
    17 H(1)   Bbb    -0.0003    -0.137    -0.049    -0.046  0.8331  0.2006  0.5154
              Bcc     0.0051     2.733     0.975     0.912 -0.4933 -0.1521  0.8565
 

 ---------------------------------------------------------------------------------


 Test job not archived.
 1\1\GINC-BATAGIN1\SP\UB3LYP\6-31G(d,p)\C2H6O7P2(1-,2)\ORISON\08-Feb-20
 21\0\\#t B3LYP/6-31G(d,p) scrf=(solvent=water) # Gfinput IOP(6/7=3) Po
 p=hirshfeld Density Test # Units(Ang,Deg)\\eti-2dp-opt-g09.log\\-1,2\C
 ,0,0.03678,1.86311,0.81911\H,0,0.05643,1.53009,1.85991\H,0,-0.8391,2.4
 9812,0.66358\C,0,0.00782,0.66901,-0.13618\O,0,-0.01905,1.18454,-1.4859
 1\H,0,-0.56995,0.52705,-1.95789\P,0,-1.55686,-0.36208,0.02755\P,0,1.54
 994,-0.37443,0.08434\O,0,-1.90524,-0.75366,-1.40151\O,0,1.52327,-1.531
 94,-0.89046\O,0,2.72267,0.69693,-0.46658\O,0,-2.71715,0.76191,0.46197\
 O,0,-1.47189,-1.38812,1.13493\O,0,1.8452,-0.59649,1.55655\H,0,0.93711,
 2.45999,0.63867\H,0,3.1742,1.03141,0.3207\H,0,-2.745,0.82287,1.42718\\
 Version=EM64L-G16RevA.03\State=2-A\HF=-1289.3340265\S2=0.754599\S2-1=0
 .\S2A=0.750016\RMSD=7.390e-09\Dipole=0.3352145,3.8252366,1.1642343\Qua
 drupole=-3.4212647,1.2973109,2.1239538,0.9034366,-2.4853573,4.0733735\
 PG=C01 [X(C2H6O7P2)]\\@


 ... UNTIL SCIENCE IS MIXED WITH EMOTION AND APPEALS TO THE HEART AND
 IMAGINATION , IT IS LIKE DEAD INORGANIC MATTER; AND WHEN IT IS SO MIXED
 AND SO TRANSFORMED IT IS LITERATURE.

                                  -- JOHN BURROUGHS
 Job cpu time:       0 days  0 hours 12 minutes 58.2 seconds.
 Elapsed time:       0 days  0 hours  1 minutes 37.5 seconds.
 File lengths (MBytes):  RWF=     88 Int=      0 D2E=      0 Chk=      5 Scr=      1
 Normal termination of Gaussian 16 at Mon Feb  8 14:41:03 2021.
