 Entering Gaussian System, Link 0=g16
 Input=eti-2dp-opt-g09.com
 Output=eti-2dp-opt-g09.log
 Initial command:
 /opt/g16//g16/l1.exe "/home/orison/scrgauss/Gau-2580.inp" -scrdir="/home/orison/scrgauss/"
 Entering Link 1 = /opt/g16//g16/l1.exe PID=      2582.
  
 Copyright (c) 1988,1990,1992,1993,1995,1998,2003,2009,2016,
            Gaussian, Inc.  All Rights Reserved.
  
 This is part of the Gaussian(R) 16 program.  It is based on
 the Gaussian(R) 09 system (copyright 2009, Gaussian, Inc.),
 the Gaussian(R) 03 system (copyright 2003, Gaussian, Inc.),
 the Gaussian(R) 98 system (copyright 1998, Gaussian, Inc.),
 the Gaussian(R) 94 system (copyright 1995, Gaussian, Inc.),
 the Gaussian 92(TM) system (copyright 1992, Gaussian, Inc.),
 the Gaussian 90(TM) system (copyright 1990, Gaussian, Inc.),
 the Gaussian 88(TM) system (copyright 1988, Gaussian, Inc.),
 the Gaussian 86(TM) system (copyright 1986, Carnegie Mellon
 University), and the Gaussian 82(TM) system (copyright 1983,
 Carnegie Mellon University). Gaussian is a federally registered
 trademark of Gaussian, Inc.
  
 This software contains proprietary and confidential information,
 including trade secrets, belonging to Gaussian, Inc.
  
 This software is provided under written license and may be
 used, copied, transmitted, or stored only in accord with that
 written license.
  
 The following legend is applicable only to US Government
 contracts under FAR:
  
                    RESTRICTED RIGHTS LEGEND
  
 Use, reproduction and disclosure by the US Government is
 subject to restrictions as set forth in subparagraphs (a)
 and (c) of the Commercial Computer Software - Restricted
 Rights clause in FAR 52.227-19.
  
 Gaussian, Inc.
 340 Quinnipiac St., Bldg. 40, Wallingford CT 06492
  
  
 ---------------------------------------------------------------
 Warning -- This program may not be used in any manner that
 competes with the business of Gaussian, Inc. or will provide
 assistance to any competitor of Gaussian, Inc.  The licensee
 of this program is prohibited from giving any competitor of
 Gaussian, Inc. access to this program.  By using this program,
 the user acknowledges that Gaussian, Inc. is engaged in the
 business of creating and licensing software in the field of
 computational chemistry and represents and warrants to the
 licensee that it is not a competitor of Gaussian, Inc. and that
 it will not use this program in any manner prohibited above.
 ---------------------------------------------------------------
  

 Cite this work as:
 Gaussian 16, Revision A.03,
 M. J. Frisch, G. W. Trucks, H. B. Schlegel, G. E. Scuseria, 
 M. A. Robb, J. R. Cheeseman, G. Scalmani, V. Barone, 
 G. A. Petersson, H. Nakatsuji, X. Li, M. Caricato, A. V. Marenich, 
 J. Bloino, B. G. Janesko, R. Gomperts, B. Mennucci, H. P. Hratchian, 
 J. V. Ortiz, A. F. Izmaylov, J. L. Sonnenberg, D. Williams-Young, 
 F. Ding, F. Lipparini, F. Egidi, J. Goings, B. Peng, A. Petrone, 
 T. Henderson, D. Ranasinghe, V. G. Zakrzewski, J. Gao, N. Rega, 
 G. Zheng, W. Liang, M. Hada, M. Ehara, K. Toyota, R. Fukuda, 
 J. Hasegawa, M. Ishida, T. Nakajima, Y. Honda, O. Kitao, H. Nakai, 
 T. Vreven, K. Throssell, J. A. Montgomery, Jr., J. E. Peralta, 
 F. Ogliaro, M. J. Bearpark, J. J. Heyd, E. N. Brothers, K. N. Kudin, 
 V. N. Staroverov, T. A. Keith, R. Kobayashi, J. Normand, 
 K. Raghavachari, A. P. Rendell, J. C. Burant, S. S. Iyengar, 
 J. Tomasi, M. Cossi, J. M. Millam, M. Klene, C. Adamo, R. Cammi, 
 J. W. Ochterski, R. L. Martin, K. Morokuma, O. Farkas, 
 J. B. Foresman, and D. J. Fox, Gaussian, Inc., Wallingford CT, 2016.
 
 ******************************************
 Gaussian 16:  EM64L-G16RevA.03 25-Dec-2016
                 8-Feb-2021 
 ******************************************
 %nproc=8
 Will use up to    8 processors via shared memory.
 %Mem=4GB
 ----------------------------------------------------------------------
 #P B3LYP/6-31G(d,p) # Opt SCRF=(Solvent=Water) # Gfinput IOP(6/7=3) Po
 p=full Density Test # Units(Ang,Deg)
 ----------------------------------------------------------------------
 1/18=20,19=15,26=3,38=1/1,3;
 2/9=110,12=2,17=6,18=5,40=1/2;
 3/5=1,6=6,7=101,11=2,24=10,25=1,30=1,70=2201,71=1,72=1,74=-5/1,2,3;
 4//1;
 5/5=2,38=5,53=1/2;
 6/7=3,22=-1,28=1/1;
 7//1,2,3,16;
 1/18=20,19=15,26=3/3(2);
 2/9=110/2;
 99//99;
 2/9=110/2;
 3/5=1,6=6,7=101,11=2,25=1,30=1,70=2205,71=1,72=1,74=-5/1,2,3;
 4/5=5,16=3,69=1/1;
 5/5=2,38=5,53=1/2;
 7//1,2,3,16;
 1/18=20,19=15,26=3/3(-5);
 2/9=110/2;
 6/7=3,19=2,22=-1,28=1/1;
 99/9=1/99;
 Leave Link    1 at Mon Feb  8 11:13:21 2021, MaxMem=   536870912 cpu:               0.3 elap:               0.0
 (Enter /opt/g16//g16/l101.exe)
 ---------------
 pre-eti-2dp.log
 ---------------
 Symbolic Z-matrix:
 Charge = -2 Multiplicity = 1
 C                    -0.03724   2.07429   0.65669 
 H                     0.04619   1.86931   1.72623 
 H                    -0.96766   2.61712   0.46736 
 C                    -0.02862   0.77221  -0.14525 
 O                    -0.08809   1.15265  -1.5414 
 H                    -0.40113   0.36059  -2.00694 
 P                    -1.58887  -0.22687   0.18693 
 P                     1.59686  -0.12337   0.16522 
 O                    -1.42635  -1.30579  -1.08268 
 O                     1.25927  -1.64141  -0.53088 
 O                     2.69338   0.47481  -0.69276 
 O                    -2.80045   0.62147  -0.13273 
 O                    -1.52126  -0.96204   1.50864 
 O                     1.82243  -0.33104   1.64477 
 H                     0.80555   2.70844   0.35986 
 H                     3.61455   0.32023  -0.47104 
 H                    -3.68285   0.26765   0.00059 
 
 ITRead=  0  0  0  0  0  0  0  0  0  0  0  0  0  0  0  0  0
 MicOpt= -1 -1 -1 -1 -1 -1 -1 -1 -1 -1 -1 -1 -1 -1 -1 -1 -1
 NAtoms=     17 NQM=       17 NQMF=       0 NMMI=      0 NMMIF=      0
                NMic=       0 NMicF=      0.
                    Isotopes and Nuclear Properties:
 (Nuclear quadrupole moments (NQMom) in fm**2, nuclear magnetic moments (NMagM)
  in nuclear magnetons)

  Atom         1           2           3           4           5           6           7           8           9          10
 IAtWgt=          12           1           1          12          16           1          31          31          16          16
 AtmWgt=  12.0000000   1.0078250   1.0078250  12.0000000  15.9949146   1.0078250  30.9737634  30.9737634  15.9949146  15.9949146
 NucSpn=           0           1           1           0           0           1           1           1           0           0
 AtZEff=  -0.0000000  -0.0000000  -0.0000000  -0.0000000  -0.0000000  -0.0000000  -0.0000000  -0.0000000  -0.0000000  -0.0000000
 NQMom=    0.0000000   0.0000000   0.0000000   0.0000000   0.0000000   0.0000000   0.0000000   0.0000000   0.0000000   0.0000000
 NMagM=    0.0000000   2.7928460   2.7928460   0.0000000   0.0000000   2.7928460   1.1316000   1.1316000   0.0000000   0.0000000
 AtZNuc=   6.0000000   1.0000000   1.0000000   6.0000000   8.0000000   1.0000000  15.0000000  15.0000000   8.0000000   8.0000000

  Atom        11          12          13          14          15          16          17
 IAtWgt=          16          16          16          16           1           1           1
 AtmWgt=  15.9949146  15.9949146  15.9949146  15.9949146   1.0078250   1.0078250   1.0078250
 NucSpn=           0           0           0           0           1           1           1
 AtZEff=  -0.0000000  -0.0000000  -0.0000000  -0.0000000  -0.0000000  -0.0000000  -0.0000000
 NQMom=    0.0000000   0.0000000   0.0000000   0.0000000   0.0000000   0.0000000   0.0000000
 NMagM=    0.0000000   0.0000000   0.0000000   0.0000000   2.7928460   2.7928460   2.7928460
 AtZNuc=   8.0000000   8.0000000   8.0000000   8.0000000   1.0000000   1.0000000   1.0000000
 Leave Link  101 at Mon Feb  8 11:13:21 2021, MaxMem=   536870912 cpu:               0.4 elap:               0.1
 (Enter /opt/g16//g16/l103.exe)

 GradGradGradGradGradGradGradGradGradGradGradGradGradGradGradGradGradGrad
 Berny optimization.
 Initialization pass.
                           ----------------------------
                           !    Initial Parameters    !
                           ! (Angstroms and Degrees)  !
 --------------------------                            --------------------------
 ! Name  Definition              Value          Derivative Info.                !
 --------------------------------------------------------------------------------
 ! R1    R(1,2)                  1.0922         estimate D2E/DX2                !
 ! R2    R(1,3)                  1.0937         estimate D2E/DX2                !
 ! R3    R(1,4)                  1.5292         estimate D2E/DX2                !
 ! R4    R(1,15)                 1.0957         estimate D2E/DX2                !
 ! R5    R(4,5)                  1.4483         estimate D2E/DX2                !
 ! R6    R(4,7)                  1.8823         estimate D2E/DX2                !
 ! R7    R(4,8)                  1.8817         estimate D2E/DX2                !
 ! R8    R(5,6)                  0.9706         estimate D2E/DX2                !
 ! R9    R(7,9)                  1.674          estimate D2E/DX2                !
 ! R10   R(7,12)                 1.5132         estimate D2E/DX2                !
 ! R11   R(7,13)                 1.5139         estimate D2E/DX2                !
 ! R12   R(8,10)                 1.7038         estimate D2E/DX2                !
 ! R13   R(8,11)                 1.5154         estimate D2E/DX2                !
 ! R14   R(8,14)                 1.511          estimate D2E/DX2                !
 ! R15   R(11,16)                0.96           estimate D2E/DX2                !
 ! R16   R(12,17)                0.96           estimate D2E/DX2                !
 ! A1    A(2,1,3)              109.1262         estimate D2E/DX2                !
 ! A2    A(2,1,4)              110.689          estimate D2E/DX2                !
 ! A3    A(2,1,15)             108.3701         estimate D2E/DX2                !
 ! A4    A(3,1,4)              109.6706         estimate D2E/DX2                !
 ! A5    A(3,1,15)             108.6745         estimate D2E/DX2                !
 ! A6    A(4,1,15)             110.2669         estimate D2E/DX2                !
 ! A7    A(1,4,5)              106.3576         estimate D2E/DX2                !
 ! A8    A(1,4,7)              110.7764         estimate D2E/DX2                !
 ! A9    A(1,4,8)              108.8805         estimate D2E/DX2                !
 ! A10   A(5,4,7)              105.993          estimate D2E/DX2                !
 ! A11   A(5,4,8)              108.6361         estimate D2E/DX2                !
 ! A12   A(7,4,8)              115.7422         estimate D2E/DX2                !
 ! A13   A(4,5,6)              105.1445         estimate D2E/DX2                !
 ! A14   A(4,7,9)               97.3411         estimate D2E/DX2                !
 ! A15   A(4,7,12)             109.1989         estimate D2E/DX2                !
 ! A16   A(4,7,13)             112.0125         estimate D2E/DX2                !
 ! A17   A(9,7,12)             106.191          estimate D2E/DX2                !
 ! A18   A(9,7,13)             110.1703         estimate D2E/DX2                !
 ! A19   A(12,7,13)            119.5001         estimate D2E/DX2                !
 ! A20   A(4,8,10)             100.6894         estimate D2E/DX2                !
 ! A21   A(4,8,11)             110.1077         estimate D2E/DX2                !
 ! A22   A(4,8,14)             110.8512         estimate D2E/DX2                !
 ! A23   A(10,8,11)            105.2936         estimate D2E/DX2                !
 ! A24   A(10,8,14)            107.8894         estimate D2E/DX2                !
 ! A25   A(11,8,14)            120.0423         estimate D2E/DX2                !
 ! A26   A(8,11,16)            120.0            estimate D2E/DX2                !
 ! A27   A(7,12,17)            120.0            estimate D2E/DX2                !
 ! D1    D(2,1,4,5)           -177.7416         estimate D2E/DX2                !
 ! D2    D(2,1,4,7)             67.5203         estimate D2E/DX2                !
 ! D3    D(2,1,4,8)            -60.8466         estimate D2E/DX2                !
 ! D4    D(3,1,4,5)             61.7983         estimate D2E/DX2                !
 ! D5    D(3,1,4,7)            -52.9398         estimate D2E/DX2                !
 ! D6    D(3,1,4,8)            178.6932         estimate D2E/DX2                !
 ! D7    D(15,1,4,5)           -57.8368         estimate D2E/DX2                !
 ! D8    D(15,1,4,7)          -172.5749         estimate D2E/DX2                !
 ! D9    D(15,1,4,8)            59.0581         estimate D2E/DX2                !
 ! D10   D(1,4,5,6)           -160.1104         estimate D2E/DX2                !
 ! D11   D(7,4,5,6)            -42.1607         estimate D2E/DX2                !
 ! D12   D(8,4,5,6)             82.8317         estimate D2E/DX2                !
 ! D13   D(1,4,7,9)            166.5035         estimate D2E/DX2                !
 ! D14   D(1,4,7,12)            56.4704         estimate D2E/DX2                !
 ! D15   D(1,4,7,13)           -78.214          estimate D2E/DX2                !
 ! D16   D(5,4,7,9)             51.537          estimate D2E/DX2                !
 ! D17   D(5,4,7,12)           -58.4961         estimate D2E/DX2                !
 ! D18   D(5,4,7,13)           166.8195         estimate D2E/DX2                !
 ! D19   D(8,4,7,9)            -68.9436         estimate D2E/DX2                !
 ! D20   D(8,4,7,12)          -178.9767         estimate D2E/DX2                !
 ! D21   D(8,4,7,13)            46.3389         estimate D2E/DX2                !
 ! D22   D(1,4,8,10)           168.6913         estimate D2E/DX2                !
 ! D23   D(1,4,8,11)           -80.5183         estimate D2E/DX2                !
 ! D24   D(1,4,8,14)            54.7118         estimate D2E/DX2                !
 ! D25   D(5,4,8,10)           -75.8759         estimate D2E/DX2                !
 ! D26   D(5,4,8,11)            34.9145         estimate D2E/DX2                !
 ! D27   D(5,4,8,14)           170.1446         estimate D2E/DX2                !
 ! D28   D(7,4,8,10)            43.1634         estimate D2E/DX2                !
 ! D29   D(7,4,8,11)           153.9538         estimate D2E/DX2                !
 ! D30   D(7,4,8,14)           -70.816          estimate D2E/DX2                !
 ! D31   D(4,7,12,17)         -178.6642         estimate D2E/DX2                !
 ! D32   D(9,7,12,17)           77.3314         estimate D2E/DX2                !
 ! D33   D(13,7,12,17)         -47.8952         estimate D2E/DX2                !
 ! D34   D(4,8,11,16)          161.6223         estimate D2E/DX2                !
 ! D35   D(10,8,11,16)         -90.6264         estimate D2E/DX2                !
 ! D36   D(14,8,11,16)          31.1109         estimate D2E/DX2                !
 --------------------------------------------------------------------------------
 Trust Radius=3.00D-01 FncErr=1.00D-07 GrdErr=1.00D-06 EigMax=2.50D+02 EigMin=1.00D-04
 Number of steps in this run=     89 maximum allowed number of steps=    102.
 GradGradGradGradGradGradGradGradGradGradGradGradGradGradGradGradGradGrad

 Leave Link  103 at Mon Feb  8 11:13:21 2021, MaxMem=   536870912 cpu:               0.0 elap:               0.0
 (Enter /opt/g16//g16/l202.exe)
                          Input orientation:                          
 ---------------------------------------------------------------------
 Center     Atomic      Atomic             Coordinates (Angstroms)
 Number     Number       Type             X           Y           Z
 ---------------------------------------------------------------------
      1          6           0       -0.037236    2.074289    0.656689
      2          1           0        0.046194    1.869309    1.726229
      3          1           0       -0.967655    2.617121    0.467359
      4          6           0       -0.028618    0.772209   -0.145251
      5          8           0       -0.088087    1.152650   -1.541401
      6          1           0       -0.401129    0.360590   -2.006941
      7         15           0       -1.588870   -0.226867    0.186929
      8         15           0        1.596860   -0.123374    0.165219
      9          8           0       -1.426352   -1.305788   -1.082681
     10          8           0        1.259267   -1.641413   -0.530881
     11          8           0        2.693381    0.474814   -0.692761
     12          8           0       -2.800448    0.621465   -0.132731
     13          8           0       -1.521261   -0.962038    1.508639
     14          8           0        1.822430   -0.331044    1.644769
     15          1           0        0.805546    2.708438    0.359859
     16          1           0        3.614545    0.320229   -0.471040
     17          1           0       -3.682855    0.267651    0.000590
 ---------------------------------------------------------------------
                    Distance matrix (angstroms):
                    1          2          3          4          5
     1  C    0.000000
     2  H    1.092196   0.000000
     3  H    1.093706   1.780973   0.000000
     4  C    1.529246   2.170636   2.158884   0.000000
     5  O    2.384031   3.347990   2.636936   1.448277   0.000000
     6  H    3.188120   4.051282   3.396328   1.942700   0.970609
     7  P    2.814882   3.071943   2.924520   1.882255   2.672553
     8  P    2.782361   2.968519   3.765413   1.881659   2.716585
     9  O    4.047218   4.487717   4.242905   2.674043   2.836423
    10  O    4.110679   4.346408   4.908236   2.762776   3.262407
    11  O    3.440291   3.847561   4.397561   2.792399   2.986003
    12  O    3.220128   3.621632   2.775226   2.775954   3.102162
    13  O    3.485316   3.243576   3.768438   2.823287   3.978522
    14  O    3.196918   2.828993   4.226410   2.801378   4.000388
    15  H    1.095689   1.774181   1.778802   2.167936   2.614163
    16  H    4.205235   4.467748   5.210841   3.685521   3.943106
    17  H    4.121279   4.410096   3.620800   3.691787   4.010400
                    6          7          8          9         10
     6  H    0.000000
     7  P    2.562987   0.000000
     8  P    2.990729   3.187485   0.000000
     9  O    2.163829   1.674035   3.477811   0.000000
    10  O    2.990599   3.260073   1.703809   2.762187   0.000000
    11  O    3.363942   4.427627   1.515360   4.504973   2.561504
    12  O    3.055724   1.513199   4.469886   2.550461   4.664807
    13  O    3.919610   1.513924   3.497258   2.615743   3.514616
    14  O    4.331000   3.711215   1.510985   4.352435   2.601475
    15  H    3.545447   3.791985   2.946731   4.814177   4.463237
    16  H    4.299565   5.273307   2.161634   5.331855   3.065772
    17  H    3.848187   2.159639   5.296734   2.956516   5.324618
                   11         12         13         14         15
    11  O    0.000000
    12  O    5.524246   0.000000
    13  O    4.967284   2.614937   0.000000
    14  O    2.621452   5.043588   3.405430   0.000000
    15  H    3.108216   4.195390   4.495122   3.453042   0.000000
    16  H    0.960000   6.430967   5.651535   2.848242   3.779472
    17  H    6.417167   0.960000   2.908408   5.776670   5.121743
                   16         17
    16  H    0.000000
    17  H    7.312814   0.000000
 Stoichiometry    C2H6O7P2(2-)
 Framework group  C1[X(C2H6O7P2)]
 Deg. of freedom    45
 Full point group                 C1      NOp   1
 Largest Abelian subgroup         C1      NOp   1
 Largest concise Abelian subgroup C1      NOp   1
                         Standard orientation:                         
 ---------------------------------------------------------------------
 Center     Atomic      Atomic             Coordinates (Angstroms)
 Number     Number       Type             X           Y           Z
 ---------------------------------------------------------------------
      1          6           0        0.001644    1.884084    1.001301
      2          1           0        0.083139    1.485674    2.014968
      3          1           0       -0.922009    2.463736    0.917271
      4          6           0       -0.006546    0.750905   -0.025555
      5          8           0       -0.062078    1.381323   -1.328243
      6          1           0       -0.385306    0.691813   -1.930058
      7         15           0       -1.579003   -0.272975    0.122543
      8         15           0        1.607761   -0.206183    0.110959
      9          8           0       -1.430787   -1.103010   -1.323647
     10          8           0        1.250743   -1.566807   -0.850398
     11          8           0        2.711181    0.525590   -0.626123
     12          8           0       -2.780040    0.634291   -0.032853
     13          8           0       -1.519824   -1.238560    1.287064
     14          8           0        1.831597   -0.684069    1.526797
     15          1           0        0.852133    2.551528    0.823195
     16          1           0        3.630468    0.321769   -0.439121
     17          1           0       -3.666733    0.272851    0.035964
 ---------------------------------------------------------------------
 Rotational constants (GHZ):           1.4012092           0.6876288           0.6506767
 Leave Link  202 at Mon Feb  8 11:13:21 2021, MaxMem=   536870912 cpu:               0.0 elap:               0.0
 (Enter /opt/g16//g16/l301.exe)
 Standard basis: 6-31G(d,p) (6D, 7F)
 Ernie: Thresh=  0.10000D-02 Tol=  0.10000D-05 Strict=F.
 AO basis set in the form of general basis input (Overlap normalization):
      1 0
 S   6 1.00       0.000000000000
      0.3047524880D+04  0.1834737132D-02
      0.4573695180D+03  0.1403732281D-01
      0.1039486850D+03  0.6884262226D-01
      0.2921015530D+02  0.2321844432D+00
      0.9286662960D+01  0.4679413484D+00
      0.3163926960D+01  0.3623119853D+00
 SP   3 1.00       0.000000000000
      0.7868272350D+01 -0.1193324198D+00  0.6899906659D-01
      0.1881288540D+01 -0.1608541517D+00  0.3164239610D+00
      0.5442492580D+00  0.1143456438D+01  0.7443082909D+00
 SP   1 1.00       0.000000000000
      0.1687144782D+00  0.1000000000D+01  0.1000000000D+01
 D   1 1.00       0.000000000000
      0.8000000000D+00  0.1000000000D+01
 ****
      2 0
 S   3 1.00       0.000000000000
      0.1873113696D+02  0.3349460434D-01
      0.2825394365D+01  0.2347269535D+00
      0.6401216923D+00  0.8137573261D+00
 S   1 1.00       0.000000000000
      0.1612777588D+00  0.1000000000D+01
 P   1 1.00       0.000000000000
      0.1100000000D+01  0.1000000000D+01
 ****
      3 0
 S   3 1.00       0.000000000000
      0.1873113696D+02  0.3349460434D-01
      0.2825394365D+01  0.2347269535D+00
      0.6401216923D+00  0.8137573261D+00
 S   1 1.00       0.000000000000
      0.1612777588D+00  0.1000000000D+01
 P   1 1.00       0.000000000000
      0.1100000000D+01  0.1000000000D+01
 ****
      4 0
 S   6 1.00       0.000000000000
      0.3047524880D+04  0.1834737132D-02
      0.4573695180D+03  0.1403732281D-01
      0.1039486850D+03  0.6884262226D-01
      0.2921015530D+02  0.2321844432D+00
      0.9286662960D+01  0.4679413484D+00
      0.3163926960D+01  0.3623119853D+00
 SP   3 1.00       0.000000000000
      0.7868272350D+01 -0.1193324198D+00  0.6899906659D-01
      0.1881288540D+01 -0.1608541517D+00  0.3164239610D+00
      0.5442492580D+00  0.1143456438D+01  0.7443082909D+00
 SP   1 1.00       0.000000000000
      0.1687144782D+00  0.1000000000D+01  0.1000000000D+01
 D   1 1.00       0.000000000000
      0.8000000000D+00  0.1000000000D+01
 ****
      5 0
 S   6 1.00       0.000000000000
      0.5484671660D+04  0.1831074430D-02
      0.8252349460D+03  0.1395017220D-01
      0.1880469580D+03  0.6844507810D-01
      0.5296450000D+02  0.2327143360D+00
      0.1689757040D+02  0.4701928980D+00
      0.5799635340D+01  0.3585208530D+00
 SP   3 1.00       0.000000000000
      0.1553961625D+02 -0.1107775495D+00  0.7087426823D-01
      0.3599933586D+01 -0.1480262627D+00  0.3397528391D+00
      0.1013761750D+01  0.1130767015D+01  0.7271585773D+00
 SP   1 1.00       0.000000000000
      0.2700058226D+00  0.1000000000D+01  0.1000000000D+01
 D   1 1.00       0.000000000000
      0.8000000000D+00  0.1000000000D+01
 ****
      6 0
 S   3 1.00       0.000000000000
      0.1873113696D+02  0.3349460434D-01
      0.2825394365D+01  0.2347269535D+00
      0.6401216923D+00  0.8137573261D+00
 S   1 1.00       0.000000000000
      0.1612777588D+00  0.1000000000D+01
 P   1 1.00       0.000000000000
      0.1100000000D+01  0.1000000000D+01
 ****
      7 0
 S   6 1.00       0.000000000000
      0.1941330000D+05  0.1851598923D-02
      0.2909420000D+04  0.1420619174D-01
      0.6613640000D+03  0.6999945928D-01
      0.1857590000D+03  0.2400788603D+00
      0.5919430000D+02  0.4847617180D+00
      0.2003100000D+02  0.3351998050D+00
 SP   6 1.00       0.000000000000
      0.3394780000D+03 -0.2782170105D-02  0.4564616191D-02
      0.8101010000D+02 -0.3604990135D-01  0.3369357188D-01
      0.2587800000D+02 -0.1166310044D+00  0.1397548834D+00
      0.9452210000D+01  0.9683280364D-01  0.3393617168D+00
      0.3665660000D+01  0.6144180231D+00  0.4509206237D+00
      0.1467460000D+01  0.4037980152D+00  0.2385858009D+00
 SP   3 1.00       0.000000000000
      0.2156230000D+01 -0.2529241139D+00 -0.1776531273D-01
      0.7489970000D+00  0.3285184468D-01  0.2740581964D+00
      0.2831450000D+00  0.1081254762D+01  0.7854215630D+00
 SP   1 1.00       0.000000000000
      0.9983170000D-01  0.1000000000D+01  0.1000000000D+01
 D   1 1.00       0.000000000000
      0.5500000000D+00  0.1000000000D+01
 ****
      8 0
 S   6 1.00       0.000000000000
      0.1941330000D+05  0.1851598923D-02
      0.2909420000D+04  0.1420619174D-01
      0.6613640000D+03  0.6999945928D-01
      0.1857590000D+03  0.2400788603D+00
      0.5919430000D+02  0.4847617180D+00
      0.2003100000D+02  0.3351998050D+00
 SP   6 1.00       0.000000000000
      0.3394780000D+03 -0.2782170105D-02  0.4564616191D-02
      0.8101010000D+02 -0.3604990135D-01  0.3369357188D-01
      0.2587800000D+02 -0.1166310044D+00  0.1397548834D+00
      0.9452210000D+01  0.9683280364D-01  0.3393617168D+00
      0.3665660000D+01  0.6144180231D+00  0.4509206237D+00
      0.1467460000D+01  0.4037980152D+00  0.2385858009D+00
 SP   3 1.00       0.000000000000
      0.2156230000D+01 -0.2529241139D+00 -0.1776531273D-01
      0.7489970000D+00  0.3285184468D-01  0.2740581964D+00
      0.2831450000D+00  0.1081254762D+01  0.7854215630D+00
 SP   1 1.00       0.000000000000
      0.9983170000D-01  0.1000000000D+01  0.1000000000D+01
 D   1 1.00       0.000000000000
      0.5500000000D+00  0.1000000000D+01
 ****
      9 0
 S   6 1.00       0.000000000000
      0.5484671660D+04  0.1831074430D-02
      0.8252349460D+03  0.1395017220D-01
      0.1880469580D+03  0.6844507810D-01
      0.5296450000D+02  0.2327143360D+00
      0.1689757040D+02  0.4701928980D+00
      0.5799635340D+01  0.3585208530D+00
 SP   3 1.00       0.000000000000
      0.1553961625D+02 -0.1107775495D+00  0.7087426823D-01
      0.3599933586D+01 -0.1480262627D+00  0.3397528391D+00
      0.1013761750D+01  0.1130767015D+01  0.7271585773D+00
 SP   1 1.00       0.000000000000
      0.2700058226D+00  0.1000000000D+01  0.1000000000D+01
 D   1 1.00       0.000000000000
      0.8000000000D+00  0.1000000000D+01
 ****
     10 0
 S   6 1.00       0.000000000000
      0.5484671660D+04  0.1831074430D-02
      0.8252349460D+03  0.1395017220D-01
      0.1880469580D+03  0.6844507810D-01
      0.5296450000D+02  0.2327143360D+00
      0.1689757040D+02  0.4701928980D+00
      0.5799635340D+01  0.3585208530D+00
 SP   3 1.00       0.000000000000
      0.1553961625D+02 -0.1107775495D+00  0.7087426823D-01
      0.3599933586D+01 -0.1480262627D+00  0.3397528391D+00
      0.1013761750D+01  0.1130767015D+01  0.7271585773D+00
 SP   1 1.00       0.000000000000
      0.2700058226D+00  0.1000000000D+01  0.1000000000D+01
 D   1 1.00       0.000000000000
      0.8000000000D+00  0.1000000000D+01
 ****
     11 0
 S   6 1.00       0.000000000000
      0.5484671660D+04  0.1831074430D-02
      0.8252349460D+03  0.1395017220D-01
      0.1880469580D+03  0.6844507810D-01
      0.5296450000D+02  0.2327143360D+00
      0.1689757040D+02  0.4701928980D+00
      0.5799635340D+01  0.3585208530D+00
 SP   3 1.00       0.000000000000
      0.1553961625D+02 -0.1107775495D+00  0.7087426823D-01
      0.3599933586D+01 -0.1480262627D+00  0.3397528391D+00
      0.1013761750D+01  0.1130767015D+01  0.7271585773D+00
 SP   1 1.00       0.000000000000
      0.2700058226D+00  0.1000000000D+01  0.1000000000D+01
 D   1 1.00       0.000000000000
      0.8000000000D+00  0.1000000000D+01
 ****
     12 0
 S   6 1.00       0.000000000000
      0.5484671660D+04  0.1831074430D-02
      0.8252349460D+03  0.1395017220D-01
      0.1880469580D+03  0.6844507810D-01
      0.5296450000D+02  0.2327143360D+00
      0.1689757040D+02  0.4701928980D+00
      0.5799635340D+01  0.3585208530D+00
 SP   3 1.00       0.000000000000
      0.1553961625D+02 -0.1107775495D+00  0.7087426823D-01
      0.3599933586D+01 -0.1480262627D+00  0.3397528391D+00
      0.1013761750D+01  0.1130767015D+01  0.7271585773D+00
 SP   1 1.00       0.000000000000
      0.2700058226D+00  0.1000000000D+01  0.1000000000D+01
 D   1 1.00       0.000000000000
      0.8000000000D+00  0.1000000000D+01
 ****
     13 0
 S   6 1.00       0.000000000000
      0.5484671660D+04  0.1831074430D-02
      0.8252349460D+03  0.1395017220D-01
      0.1880469580D+03  0.6844507810D-01
      0.5296450000D+02  0.2327143360D+00
      0.1689757040D+02  0.4701928980D+00
      0.5799635340D+01  0.3585208530D+00
 SP   3 1.00       0.000000000000
      0.1553961625D+02 -0.1107775495D+00  0.7087426823D-01
      0.3599933586D+01 -0.1480262627D+00  0.3397528391D+00
      0.1013761750D+01  0.1130767015D+01  0.7271585773D+00
 SP   1 1.00       0.000000000000
      0.2700058226D+00  0.1000000000D+01  0.1000000000D+01
 D   1 1.00       0.000000000000
      0.8000000000D+00  0.1000000000D+01
 ****
     14 0
 S   6 1.00       0.000000000000
      0.5484671660D+04  0.1831074430D-02
      0.8252349460D+03  0.1395017220D-01
      0.1880469580D+03  0.6844507810D-01
      0.5296450000D+02  0.2327143360D+00
      0.1689757040D+02  0.4701928980D+00
      0.5799635340D+01  0.3585208530D+00
 SP   3 1.00       0.000000000000
      0.1553961625D+02 -0.1107775495D+00  0.7087426823D-01
      0.3599933586D+01 -0.1480262627D+00  0.3397528391D+00
      0.1013761750D+01  0.1130767015D+01  0.7271585773D+00
 SP   1 1.00       0.000000000000
      0.2700058226D+00  0.1000000000D+01  0.1000000000D+01
 D   1 1.00       0.000000000000
      0.8000000000D+00  0.1000000000D+01
 ****
     15 0
 S   3 1.00       0.000000000000
      0.1873113696D+02  0.3349460434D-01
      0.2825394365D+01  0.2347269535D+00
      0.6401216923D+00  0.8137573261D+00
 S   1 1.00       0.000000000000
      0.1612777588D+00  0.1000000000D+01
 P   1 1.00       0.000000000000
      0.1100000000D+01  0.1000000000D+01
 ****
     16 0
 S   3 1.00       0.000000000000
      0.1873113696D+02  0.3349460434D-01
      0.2825394365D+01  0.2347269535D+00
      0.6401216923D+00  0.8137573261D+00
 S   1 1.00       0.000000000000
      0.1612777588D+00  0.1000000000D+01
 P   1 1.00       0.000000000000
      0.1100000000D+01  0.1000000000D+01
 ****
     17 0
 S   3 1.00       0.000000000000
      0.1873113696D+02  0.3349460434D-01
      0.2825394365D+01  0.2347269535D+00
      0.6401216923D+00  0.8137573261D+00
 S   1 1.00       0.000000000000
      0.1612777588D+00  0.1000000000D+01
 P   1 1.00       0.000000000000
      0.1100000000D+01  0.1000000000D+01
 ****

 There are   203 symmetry adapted cartesian basis functions of A   symmetry.
 There are   203 symmetry adapted basis functions of A   symmetry.
   203 basis functions,   398 primitive gaussians,   203 cartesian basis functions
    53 alpha electrons       53 beta electrons
       nuclear repulsion energy       976.5014931650 Hartrees.
 IExCor=  402 DFT=T Ex+Corr=B3LYP ExCW=0 ScaHFX=  0.200000
 ScaDFX=  0.800000  0.720000  1.000000  0.810000 ScalE2=  1.000000  1.000000
 IRadAn=      5 IRanWt=     -1 IRanGd=            0 ICorTp=0 IEmpDi=  4
 NAtoms=   17 NActive=   17 NUniq=   17 SFac= 1.00D+00 NAtFMM=   60 NAOKFM=F Big=F
 Integral buffers will be    131072 words long.
 Raffenetti 2 integral format.
 Two-electron integral symmetry is turned on.
 ------------------------------------------------------------------------------
 Polarizable Continuum Model (PCM)
 =================================
 Model                : PCM.
 Atomic radii         : UFF (Universal Force Field).
 Polarization charges : Total charges.
 Charge compensation  : None.
 Solution method      : On-the-fly selection.
 Cavity type          : Scaled VdW (van der Waals Surface) (Alpha=1.100).
 Cavity algorithm     : GePol (No added spheres)
                        Default sphere list used, NSphG=   17.
                        Lebedev-Laikov grids with approx.  5.0 points / Ang**2.
                        Smoothing algorithm: York/Karplus (Gamma=1.0000).
                        Polarization charges: spherical gaussians, with
                                              point-specific exponents (IZeta= 3).
                        Self-potential: point-specific (ISelfS= 7).
                        Self-field    : sphere-specific E.n sum rule (ISelfD= 2).
 1st derivatives      : Analytical E(r).r(x)/FMM algorithm (CHGder, D1EAlg=3).
                        Cavity 1st derivative terms included.
 Solvent              : Water, Eps=  78.355300 Eps(inf)=   1.777849
 ------------------------------------------------------------------------------
 Spheres list:
 ISph  on   Nord     Re0    Alpha      Xe            Ye            Ze
    1   C      1    1.9255  1.100      0.001644      1.884084      1.001301
    2   H      2    1.4430  1.100      0.083139      1.485674      2.014968
    3   H      3    1.4430  1.100     -0.922009      2.463736      0.917271
    4   C      4    1.9255  1.100     -0.006546      0.750905     -0.025555
    5   O      5    1.7500  1.100     -0.062078      1.381323     -1.328243
    6   H      6    1.4430  1.100     -0.385306      0.691813     -1.930058
    7   P      7    2.0735  1.100     -1.579003     -0.272975      0.122543
    8   P      8    2.0735  1.100      1.607761     -0.206183      0.110959
    9   O      9    1.7500  1.100     -1.430787     -1.103010     -1.323647
   10   O     10    1.7500  1.100      1.250743     -1.566807     -0.850398
   11   O     11    1.7500  1.100      2.711181      0.525590     -0.626123
   12   O     12    1.7500  1.100     -2.780040      0.634291     -0.032853
   13   O     13    1.7500  1.100     -1.519824     -1.238560      1.287064
   14   O     14    1.7500  1.100      1.831597     -0.684069      1.526797
   15   H     15    1.4430  1.100      0.852133      2.551528      0.823195
   16   H     16    1.4430  1.100      3.630468      0.321769     -0.439121
   17   H     17    1.4430  1.100     -3.666733      0.272851      0.035964
 ------------------------------------------------------------------------------
 GePol: Number of generator spheres                  =      17
 GePol: Total number of spheres                      =      17
 GePol: Number of exposed spheres                    =      16 ( 94.12%)
 GePol: Number of points                             =    1631
 GePol: Average weight of points                     =       0.13
 GePol: Minimum weight of points                     =   0.59D-09
 GePol: Maximum weight of points                     =    0.20577
 GePol: Number of points with low weight             =      82
 GePol: Fraction of low-weight points (<1% of avg)   =       5.03%
 GePol: Cavity surface area                          =    217.254 Ang**2
 GePol: Cavity volume                                =    221.171 Ang**3
 Leave Link  301 at Mon Feb  8 11:13:21 2021, MaxMem=   536870912 cpu:               0.3 elap:               0.0
 (Enter /opt/g16//g16/l302.exe)
 NPDir=0 NMtPBC=     1 NCelOv=     1 NCel=       1 NClECP=     1 NCelD=      1
         NCelK=      1 NCelE2=     1 NClLst=     1 CellRange=     0.0.
 One-electron integrals computed using PRISM.
 One-electron integral symmetry used in STVInt
 NBasis=   203 RedAO= T EigKep=  4.32D-03  NBF=   203
 NBsUse=   203 1.00D-06 EigRej= -1.00D+00 NBFU=   203
 Precomputing XC quadrature grid using
 IXCGrd= 4 IRadAn=           5 IRanWt=          -1 IRanGd=           0 AccXCQ= 0.00D+00.
 Generated NRdTot=       0 NPtTot=           0 NUsed=           0 NTot=          32
 NSgBfM=   203   203   203   203   203 MxSgAt=    17 MxSgA2=    17.
 Leave Link  302 at Mon Feb  8 11:13:21 2021, MaxMem=   536870912 cpu:               1.7 elap:               0.2
 (Enter /opt/g16//g16/l303.exe)
 DipDrv:  MaxL=1.
 Leave Link  303 at Mon Feb  8 11:13:21 2021, MaxMem=   536870912 cpu:               0.1 elap:               0.0
 (Enter /opt/g16//g16/l401.exe)
 ExpMin= 9.98D-02 ExpMax= 1.94D+04 ExpMxC= 2.91D+03 IAcc=3 IRadAn=         5 AccDes= 0.00D+00
 Harris functional with IExCor=  402 and IRadAn=       5 diagonalized for initial guess.
 HarFok:  IExCor=  402 AccDes= 0.00D+00 IRadAn=         5 IDoV= 1 UseB2=F ITyADJ=14
 ICtDFT=  3500011 ScaDFX=  1.000000  1.000000  1.000000  1.000000
 FoFCou: FMM=F IPFlag=           0 FMFlag=      100000 FMFlg1=           0
         NFxFlg=           0 DoJE=T BraDBF=F KetDBF=T FulRan=T
         wScrn=  0.000000 ICntrl=       500 IOpCl=  0 I1Cent=   200000004 NGrid=           0
         NMat0=    1 NMatS0=      1 NMatT0=    0 NMatD0=    1 NMtDS0=    0 NMtDT0=    0
 Petite list used in FoFCou.
 Harris En= -1289.80275724486    
 JPrj=0 DoOrth=F DoCkMO=F.
 Leave Link  401 at Mon Feb  8 11:13:23 2021, MaxMem=   536870912 cpu:               9.6 elap:               1.2
 (Enter /opt/g16//g16/l502.exe)
 Integral symmetry usage will be decided dynamically.
 Closed shell SCF:
 Using DIIS extrapolation, IDIIS=  1040.
 NGot=   536870912 LenX=   536784686 LenY=   536743036
 Requested convergence on RMS density matrix=1.00D-08 within 128 cycles.
 Requested convergence on MAX density matrix=1.00D-06.
 Requested convergence on             energy=1.00D-06.
 No special actions if energy rises.
 Fock matrices will be formed incrementally for  20 cycles.

 Cycle   1  Pass 1  IDiag  1:
 FoFJK:  IHMeth= 1 ICntrl=       0 DoSepK=F KAlg= 0 I1Cent=           0 FoldK=F
 IRaf= 910000000 NMat=       1 IRICut=       1 DoRegI=T DoRafI=F ISym2E= 0 IDoP0=0 IntGTp=1.
 FoFCou: FMM=F IPFlag=           0 FMFlag=      100000 FMFlg1=           0
         NFxFlg=           0 DoJE=F BraDBF=F KetDBF=F FulRan=T
         wScrn=  0.000000 ICntrl=         0 IOpCl=  0 I1Cent=           0 NGrid=           0
         NMat0=    1 NMatS0=      1 NMatT0=    0 NMatD0=    1 NMtDS0=    0 NMtDT0=    0
 Symmetry not used in FoFCou.
 Inv3:  Mode=1 IEnd=     7980483.
 Iteration    1 A*A^-1 deviation from unit magnitude is 6.44D-15 for    834.
 Iteration    1 A*A^-1 deviation from orthogonality  is 3.14D-15 for    608    102.
 Iteration    1 A^-1*A deviation from unit magnitude is 6.44D-15 for   1242.
 Iteration    1 A^-1*A deviation from orthogonality  is 2.67D-15 for    608    102.
 E= -1288.64473522450    
 DIIS: error= 4.24D-02 at cycle   1 NSaved=   1.
 NSaved= 1 IEnMin= 1 EnMin= -1288.64473522450     IErMin= 1 ErrMin= 4.24D-02
 ErrMax= 4.24D-02  0.00D+00 EMaxC= 1.00D-01 BMatC= 1.02D+00 BMatP= 1.02D+00
 IDIUse=3 WtCom= 5.76D-01 WtEn= 4.24D-01
 Coeff-Com:  0.100D+01
 Coeff-En:   0.100D+01
 Coeff:      0.100D+01
 Gap=     0.157 Goal=   None    Shift=    0.000
 GapD=    0.157 DampG=1.000 DampE=0.500 DampFc=0.5000 IDamp=-1.
 Damping current iteration by 5.00D-01
 RMSDP=1.64D-02 MaxDP=4.79D-01              OVMax= 4.62D-01

 Cycle   2  Pass 1  IDiag  1:
 RMSU=  8.21D-03    CP:  1.00D+00
 E= -1288.66264785466     Delta-E=       -0.017912630155 Rises=F Damp=T
 DIIS: error= 2.41D-02 at cycle   2 NSaved=   2.
 NSaved= 2 IEnMin= 2 EnMin= -1288.66264785466     IErMin= 2 ErrMin= 2.41D-02
 ErrMax= 2.41D-02  0.00D+00 EMaxC= 1.00D-01 BMatC= 2.16D-01 BMatP= 1.02D+00
 IDIUse=3 WtCom= 7.59D-01 WtEn= 2.41D-01
 Coeff-Com:  0.286D+00 0.714D+00
 Coeff-En:   0.491D+00 0.509D+00
 Coeff:      0.335D+00 0.665D+00
 Gap=     0.151 Goal=   None    Shift=    0.000
 RMSDP=5.98D-03 MaxDP=1.79D-01 DE=-1.79D-02 OVMax= 4.27D-01

 Cycle   3  Pass 1  IDiag  1:
 RMSU=  3.43D-03    CP:  9.95D-01  4.05D-01
 E= -1289.30413461513     Delta-E=       -0.641486760470 Rises=F Damp=F
 DIIS: error= 1.44D-02 at cycle   3 NSaved=   3.
 NSaved= 3 IEnMin= 3 EnMin= -1289.30413461513     IErMin= 3 ErrMin= 1.44D-02
 ErrMax= 1.44D-02  0.00D+00 EMaxC= 1.00D-01 BMatC= 1.36D-01 BMatP= 2.16D-01
 IDIUse=3 WtCom= 8.56D-01 WtEn= 1.44D-01
 Coeff-Com:  0.164D+00 0.444D+00 0.392D+00
 Coeff-En:   0.000D+00 0.000D+00 0.100D+01
 Coeff:      0.140D+00 0.381D+00 0.479D+00
 Gap=     0.248 Goal=   None    Shift=    0.000
 RMSDP=2.21D-03 MaxDP=4.92D-02 DE=-6.41D-01 OVMax= 7.15D-02

 Cycle   4  Pass 1  IDiag  1:
 RMSU=  1.56D-03    CP:  1.00D+00  4.85D-01  5.88D-01
 E= -1289.40961599931     Delta-E=       -0.105481384180 Rises=F Damp=F
 DIIS: error= 5.10D-03 at cycle   4 NSaved=   4.
 NSaved= 4 IEnMin= 4 EnMin= -1289.40961599931     IErMin= 4 ErrMin= 5.10D-03
 ErrMax= 5.10D-03  0.00D+00 EMaxC= 1.00D-01 BMatC= 1.32D-02 BMatP= 1.36D-01
 IDIUse=3 WtCom= 9.49D-01 WtEn= 5.10D-02
 Coeff-Com:  0.202D-01 0.912D-01 0.243D+00 0.646D+00
 Coeff-En:   0.000D+00 0.000D+00 0.369D-01 0.963D+00
 Coeff:      0.191D-01 0.866D-01 0.232D+00 0.662D+00
 Gap=     0.195 Goal=   None    Shift=    0.000
 RMSDP=6.65D-04 MaxDP=1.80D-02 DE=-1.05D-01 OVMax= 2.64D-02

 Cycle   5  Pass 1  IDiag  1:
 RMSU=  4.69D-04    CP:  1.00D+00  4.71D-01  6.77D-01  7.82D-01
 E= -1289.41700978510     Delta-E=       -0.007393785795 Rises=F Damp=F
 DIIS: error= 2.05D-03 at cycle   5 NSaved=   5.
 NSaved= 5 IEnMin= 5 EnMin= -1289.41700978510     IErMin= 5 ErrMin= 2.05D-03
 ErrMax= 2.05D-03  0.00D+00 EMaxC= 1.00D-01 BMatC= 2.70D-03 BMatP= 1.32D-02
 IDIUse=3 WtCom= 9.80D-01 WtEn= 2.05D-02
 Coeff-Com: -0.480D-02 0.113D-01 0.104D+00 0.435D+00 0.454D+00
 Coeff-En:   0.000D+00 0.000D+00 0.000D+00 0.176D+00 0.824D+00
 Coeff:     -0.470D-02 0.111D-01 0.102D+00 0.430D+00 0.462D+00
 Gap=     0.189 Goal=   None    Shift=    0.000
 RMSDP=2.97D-04 MaxDP=6.94D-03 DE=-7.39D-03 OVMax= 9.74D-03

 Cycle   6  Pass 1  IDiag  1:
 RMSU=  1.24D-04    CP:  1.00D+00  4.78D-01  6.69D-01  8.68D-01  5.19D-01
 E= -1289.41909596340     Delta-E=       -0.002086178294 Rises=F Damp=F
 DIIS: error= 3.92D-04 at cycle   6 NSaved=   6.
 NSaved= 6 IEnMin= 6 EnMin= -1289.41909596340     IErMin= 6 ErrMin= 3.92D-04
 ErrMax= 3.92D-04  0.00D+00 EMaxC= 1.00D-01 BMatC= 1.13D-04 BMatP= 2.70D-03
 IDIUse=3 WtCom= 9.96D-01 WtEn= 3.92D-03
 Coeff-Com: -0.231D-02-0.145D-02 0.293D-01 0.134D+00 0.226D+00 0.614D+00
 Coeff-En:   0.000D+00 0.000D+00 0.000D+00 0.000D+00 0.000D+00 0.100D+01
 Coeff:     -0.230D-02-0.144D-02 0.292D-01 0.134D+00 0.225D+00 0.616D+00
 Gap=     0.190 Goal=   None    Shift=    0.000
 RMSDP=6.12D-05 MaxDP=2.26D-03 DE=-2.09D-03 OVMax= 2.20D-03

 Cycle   7  Pass 1  IDiag  1:
 RMSU=  4.50D-05    CP:  1.00D+00  4.77D-01  6.74D-01  8.63D-01  5.63D-01
                    CP:  7.63D-01
 E= -1289.41917883914     Delta-E=       -0.000082875740 Rises=F Damp=F
 DIIS: error= 1.28D-04 at cycle   7 NSaved=   7.
 NSaved= 7 IEnMin= 7 EnMin= -1289.41917883914     IErMin= 7 ErrMin= 1.28D-04
 ErrMax= 1.28D-04  0.00D+00 EMaxC= 1.00D-01 BMatC= 1.21D-05 BMatP= 1.13D-04
 IDIUse=3 WtCom= 9.99D-01 WtEn= 1.28D-03
 Coeff-Com: -0.319D-03-0.183D-02 0.641D-02 0.238D-01 0.715D-01 0.312D+00
 Coeff-Com:  0.589D+00
 Coeff-En:   0.000D+00 0.000D+00 0.000D+00 0.000D+00 0.000D+00 0.000D+00
 Coeff-En:   0.100D+01
 Coeff:     -0.319D-03-0.182D-02 0.640D-02 0.238D-01 0.715D-01 0.311D+00
 Coeff:      0.589D+00
 Gap=     0.191 Goal=   None    Shift=    0.000
 RMSDP=1.90D-05 MaxDP=4.10D-04 DE=-8.29D-05 OVMax= 5.33D-04

 Cycle   8  Pass 1  IDiag  1:
 RMSU=  1.19D-05    CP:  1.00D+00  4.76D-01  6.74D-01  8.62D-01  5.73D-01
                    CP:  8.16D-01  8.01D-01
 E= -1289.41918762021     Delta-E=       -0.000008781072 Rises=F Damp=F
 DIIS: error= 4.53D-05 at cycle   8 NSaved=   8.
 NSaved= 8 IEnMin= 8 EnMin= -1289.41918762021     IErMin= 8 ErrMin= 4.53D-05
 ErrMax= 4.53D-05  0.00D+00 EMaxC= 1.00D-01 BMatC= 1.23D-06 BMatP= 1.21D-05
 IDIUse=1 WtCom= 1.00D+00 WtEn= 0.00D+00
 Coeff-Com:  0.955D-04-0.982D-03 0.150D-02 0.220D-02 0.224D-01 0.124D+00
 Coeff-Com:  0.317D+00 0.535D+00
 Coeff:      0.955D-04-0.982D-03 0.150D-02 0.220D-02 0.224D-01 0.124D+00
 Coeff:      0.317D+00 0.535D+00
 Gap=     0.191 Goal=   None    Shift=    0.000
 RMSDP=6.53D-06 MaxDP=2.29D-04 DE=-8.78D-06 OVMax= 2.57D-04

 Cycle   9  Pass 1  IDiag  1:
 RMSU=  4.19D-06    CP:  1.00D+00  4.76D-01  6.74D-01  8.61D-01  5.74D-01
                    CP:  8.26D-01  8.11D-01  7.06D-01
 E= -1289.41918865346     Delta-E=       -0.000001033249 Rises=F Damp=F
 DIIS: error= 1.15D-05 at cycle   9 NSaved=   9.
 NSaved= 9 IEnMin= 9 EnMin= -1289.41918865346     IErMin= 9 ErrMin= 1.15D-05
 ErrMax= 1.15D-05  0.00D+00 EMaxC= 1.00D-01 BMatC= 7.27D-08 BMatP= 1.23D-06
 IDIUse=1 WtCom= 1.00D+00 WtEn= 0.00D+00
 Coeff-Com:  0.855D-04-0.328D-03 0.259D-03-0.809D-03 0.468D-02 0.303D-01
 Coeff-Com:  0.891D-01 0.240D+00 0.636D+00
 Coeff:      0.855D-04-0.328D-03 0.259D-03-0.809D-03 0.468D-02 0.303D-01
 Coeff:      0.891D-01 0.240D+00 0.636D+00
 Gap=     0.191 Goal=   None    Shift=    0.000
 RMSDP=2.17D-06 MaxDP=7.03D-05 DE=-1.03D-06 OVMax= 9.55D-05

 Cycle  10  Pass 1  IDiag  1:
 RMSU=  1.55D-06    CP:  1.00D+00  4.76D-01  6.74D-01  8.61D-01  5.75D-01
                    CP:  8.29D-01  8.16D-01  7.88D-01  8.58D-01
 E= -1289.41918869608     Delta-E=       -0.000000042624 Rises=F Damp=F
 DIIS: error= 7.16D-06 at cycle  10 NSaved=  10.
 NSaved=10 IEnMin=10 EnMin= -1289.41918869608     IErMin=10 ErrMin= 7.16D-06
 ErrMax= 7.16D-06  0.00D+00 EMaxC= 1.00D-01 BMatC= 2.72D-08 BMatP= 7.27D-08
 IDIUse=1 WtCom= 1.00D+00 WtEn= 0.00D+00
 Coeff-Com:  0.420D-04-0.750D-04-0.537D-04-0.842D-03-0.310D-03 0.129D-02
 Coeff-Com:  0.963D-02 0.755D-01 0.429D+00 0.486D+00
 Coeff:      0.420D-04-0.750D-04-0.537D-04-0.842D-03-0.310D-03 0.129D-02
 Coeff:      0.963D-02 0.755D-01 0.429D+00 0.486D+00
 Gap=     0.191 Goal=   None    Shift=    0.000
 RMSDP=9.52D-07 MaxDP=2.51D-05 DE=-4.26D-08 OVMax= 4.52D-05

 Cycle  11  Pass 1  IDiag  1:
 RMSU=  4.34D-07    CP:  1.00D+00  4.76D-01  6.74D-01  8.61D-01  5.75D-01
                    CP:  8.29D-01  8.20D-01  7.90D-01  9.44D-01  5.55D-01
 E= -1289.41918871695     Delta-E=       -0.000000020864 Rises=F Damp=F
 DIIS: error= 1.43D-06 at cycle  11 NSaved=  11.
 NSaved=11 IEnMin=11 EnMin= -1289.41918871695     IErMin=11 ErrMin= 1.43D-06
 ErrMax= 1.43D-06  0.00D+00 EMaxC= 1.00D-01 BMatC= 1.18D-09 BMatP= 2.72D-08
 IDIUse=1 WtCom= 1.00D+00 WtEn= 0.00D+00
 Coeff-Com:  0.617D-05-0.256D-05-0.581D-04-0.260D-03-0.658D-03-0.252D-02
 Coeff-Com: -0.518D-02 0.777D-02 0.133D+00 0.228D+00 0.640D+00
 Coeff:      0.617D-05-0.256D-05-0.581D-04-0.260D-03-0.658D-03-0.252D-02
 Coeff:     -0.518D-02 0.777D-02 0.133D+00 0.228D+00 0.640D+00
 Gap=     0.191 Goal=   None    Shift=    0.000
 RMSDP=2.21D-07 MaxDP=5.45D-06 DE=-2.09D-08 OVMax= 9.11D-06

 Cycle  12  Pass 1  IDiag  1:
 RMSU=  1.31D-07    CP:  1.00D+00  4.76D-01  6.74D-01  8.61D-01  5.75D-01
                    CP:  8.30D-01  8.21D-01  7.95D-01  9.53D-01  6.15D-01
                    CP:  7.70D-01
 E= -1289.41918871784     Delta-E=       -0.000000000890 Rises=F Damp=F
 DIIS: error= 5.33D-07 at cycle  12 NSaved=  12.
 NSaved=12 IEnMin=12 EnMin= -1289.41918871784     IErMin=12 ErrMin= 5.33D-07
 ErrMax= 5.33D-07  0.00D+00 EMaxC= 1.00D-01 BMatC= 1.91D-10 BMatP= 1.18D-09
 IDIUse=1 WtCom= 1.00D+00 WtEn= 0.00D+00
 Coeff-Com: -0.123D-05 0.795D-05-0.324D-04-0.737D-04-0.383D-03-0.159D-02
 Coeff-Com: -0.380D-02-0.287D-02 0.318D-01 0.787D-01 0.350D+00 0.548D+00
 Coeff:     -0.123D-05 0.795D-05-0.324D-04-0.737D-04-0.383D-03-0.159D-02
 Coeff:     -0.380D-02-0.287D-02 0.318D-01 0.787D-01 0.350D+00 0.548D+00
 Gap=     0.191 Goal=   None    Shift=    0.000
 RMSDP=6.82D-08 MaxDP=1.98D-06 DE=-8.90D-10 OVMax= 2.15D-06

 Cycle  13  Pass 1  IDiag  1:
 RMSU=  3.95D-08    CP:  1.00D+00  4.76D-01  6.74D-01  8.61D-01  5.75D-01
                    CP:  8.30D-01  8.21D-01  7.95D-01  9.59D-01  6.18D-01
                    CP:  8.24D-01  7.40D-01
 E= -1289.41918871799     Delta-E=       -0.000000000150 Rises=F Damp=F
 DIIS: error= 1.42D-07 at cycle  13 NSaved=  13.
 NSaved=13 IEnMin=13 EnMin= -1289.41918871799     IErMin=13 ErrMin= 1.42D-07
 ErrMax= 1.42D-07  0.00D+00 EMaxC= 1.00D-01 BMatC= 1.14D-11 BMatP= 1.91D-10
 IDIUse=1 WtCom= 1.00D+00 WtEn= 0.00D+00
 Coeff-Com: -0.138D-05 0.363D-05-0.108D-04-0.145D-04-0.109D-03-0.391D-03
 Coeff-Com: -0.910D-03-0.126D-02 0.223D-02 0.128D-01 0.830D-01 0.215D+00
 Coeff-Com:  0.690D+00
 Coeff:     -0.138D-05 0.363D-05-0.108D-04-0.145D-04-0.109D-03-0.391D-03
 Coeff:     -0.910D-03-0.126D-02 0.223D-02 0.128D-01 0.830D-01 0.215D+00
 Coeff:      0.690D+00
 Gap=     0.191 Goal=   None    Shift=    0.000
 RMSDP=1.96D-08 MaxDP=5.15D-07 DE=-1.50D-10 OVMax= 6.10D-07

 Cycle  14  Pass 1  IDiag  1:
 RMSU=  1.28D-08    CP:  1.00D+00  4.76D-01  6.74D-01  8.61D-01  5.75D-01
                    CP:  8.30D-01  8.21D-01  7.95D-01  9.59D-01  6.20D-01
                    CP:  8.35D-01  7.83D-01  8.63D-01
 E= -1289.41918871797     Delta-E=        0.000000000020 Rises=F Damp=F
 DIIS: error= 4.98D-08 at cycle  14 NSaved=  14.
 NSaved=14 IEnMin=13 EnMin= -1289.41918871799     IErMin=14 ErrMin= 4.98D-08
 ErrMax= 4.98D-08  0.00D+00 EMaxC= 1.00D-01 BMatC= 2.22D-12 BMatP= 1.14D-11
 IDIUse=1 WtCom= 1.00D+00 WtEn= 0.00D+00
 Coeff-Com: -0.768D-06 0.115D-05-0.279D-05-0.252D-06-0.162D-04-0.197D-04
 Coeff-Com: -0.966D-05-0.261D-03-0.269D-02-0.263D-02 0.240D-02 0.545D-01
 Coeff-Com:  0.398D+00 0.551D+00
 Coeff:     -0.768D-06 0.115D-05-0.279D-05-0.252D-06-0.162D-04-0.197D-04
 Coeff:     -0.966D-05-0.261D-03-0.269D-02-0.263D-02 0.240D-02 0.545D-01
 Coeff:      0.398D+00 0.551D+00
 Gap=     0.191 Goal=   None    Shift=    0.000
 RMSDP=8.09D-09 MaxDP=1.73D-07 DE= 2.05D-11 OVMax= 2.44D-07

 Error on total polarization charges =  0.00630
 SCF Done:  E(RB3LYP) =  -1289.41918872     A.U. after   14 cycles
            NFock= 14  Conv=0.81D-08     -V/T= 2.0061
 KE= 1.281590638945D+03 PE=-5.043014105078D+03 EE= 1.495502784250D+03
 Leave Link  502 at Mon Feb  8 11:14:00 2021, MaxMem=   536870912 cpu:             297.6 elap:              37.5
 (Enter /opt/g16//g16/l601.exe)
 Copying SCF densities to generalized density rwf, IOpCl= 0 IROHF=0.

 **********************************************************************

            Population analysis using the SCF density.

 **********************************************************************

 Orbital symmetries:
       Occupied  (A) (A) (A) (A) (A) (A) (A) (A) (A) (A) (A) (A)
                 (A) (A) (A) (A) (A) (A) (A) (A) (A) (A) (A) (A)
                 (A) (A) (A) (A) (A) (A) (A) (A) (A) (A) (A) (A)
                 (A) (A) (A) (A) (A) (A) (A) (A) (A) (A) (A) (A)
                 (A) (A) (A) (A) (A)
       Virtual   (A) (A) (A) (A) (A) (A) (A) (A) (A) (A) (A) (A)
                 (A) (A) (A) (A) (A) (A) (A) (A) (A) (A) (A) (A)
                 (A) (A) (A) (A) (A) (A) (A) (A) (A) (A) (A) (A)
                 (A) (A) (A) (A) (A) (A) (A) (A) (A) (A) (A) (A)
                 (A) (A) (A) (A) (A) (A) (A) (A) (A) (A) (A) (A)
                 (A) (A) (A) (A) (A) (A) (A) (A) (A) (A) (A) (A)
                 (A) (A) (A) (A) (A) (A) (A) (A) (A) (A) (A) (A)
                 (A) (A) (A) (A) (A) (A) (A) (A) (A) (A) (A) (A)
                 (A) (A) (A) (A) (A) (A) (A) (A) (A) (A) (A) (A)
                 (A) (A) (A) (A) (A) (A) (A) (A) (A) (A) (A) (A)
                 (A) (A) (A) (A) (A) (A) (A) (A) (A) (A) (A) (A)
                 (A) (A) (A) (A) (A) (A) (A) (A) (A) (A) (A) (A)
                 (A) (A) (A) (A) (A) (A)
 The electronic state is 1-A.
 Alpha  occ. eigenvalues --  -77.14470 -77.13927 -19.16096 -19.15807 -19.11726
 Alpha  occ. eigenvalues --  -19.05003 -19.04630 -19.00452 -18.99010 -10.21122
 Alpha  occ. eigenvalues --  -10.16171  -6.59322  -6.58767  -4.75820  -4.75557
 Alpha  occ. eigenvalues --   -4.75450  -4.75277  -4.74990  -4.74893  -1.05784
 Alpha  occ. eigenvalues --   -1.05333  -0.98535  -0.90316  -0.89851  -0.80362
 Alpha  occ. eigenvalues --   -0.78108  -0.73064  -0.61601  -0.61126  -0.56263
 Alpha  occ. eigenvalues --   -0.48367  -0.45000  -0.42881  -0.42467  -0.39457
 Alpha  occ. eigenvalues --   -0.38199  -0.37786  -0.36803  -0.36583  -0.35979
 Alpha  occ. eigenvalues --   -0.32634  -0.30505  -0.28403  -0.27521  -0.26811
 Alpha  occ. eigenvalues --   -0.24975  -0.23518  -0.22027  -0.19880  -0.18348
 Alpha  occ. eigenvalues --   -0.17293  -0.15331  -0.14075
 Alpha virt. eigenvalues --    0.05024   0.08853   0.11637   0.13637   0.14150
 Alpha virt. eigenvalues --    0.15598   0.17898   0.18544   0.18725   0.20774
 Alpha virt. eigenvalues --    0.21876   0.23569   0.24017   0.26703   0.28441
 Alpha virt. eigenvalues --    0.31267   0.37798   0.38052   0.39680   0.42374
 Alpha virt. eigenvalues --    0.45193   0.45376   0.47360   0.51948   0.55793
 Alpha virt. eigenvalues --    0.59798   0.62814   0.63935   0.66703   0.69859
 Alpha virt. eigenvalues --    0.77650   0.78535   0.79444   0.81550   0.83182
 Alpha virt. eigenvalues --    0.83921   0.85359   0.86145   0.87808   0.88929
 Alpha virt. eigenvalues --    0.89369   0.90894   0.93086   0.93769   0.94841
 Alpha virt. eigenvalues --    0.96884   0.97385   0.99322   1.01354   1.03070
 Alpha virt. eigenvalues --    1.05081   1.06286   1.07955   1.08775   1.09422
 Alpha virt. eigenvalues --    1.11306   1.12763   1.15369   1.16088   1.17835
 Alpha virt. eigenvalues --    1.20792   1.21389   1.24930   1.25162   1.26260
 Alpha virt. eigenvalues --    1.28172   1.30716   1.33794   1.35558   1.42783
 Alpha virt. eigenvalues --    1.46903   1.49825   1.51125   1.52617   1.55993
 Alpha virt. eigenvalues --    1.60674   1.61533   1.64852   1.71821   1.73927
 Alpha virt. eigenvalues --    1.75752   1.76851   1.79646   1.83774   1.84344
 Alpha virt. eigenvalues --    1.85410   1.87896   1.88802   1.89240   1.91872
 Alpha virt. eigenvalues --    1.92450   1.93483   1.95438   1.96593   1.98696
 Alpha virt. eigenvalues --    2.00066   2.02919   2.03386   2.05199   2.06254
 Alpha virt. eigenvalues --    2.08242   2.08666   2.12654   2.14551   2.15667
 Alpha virt. eigenvalues --    2.20471   2.22505   2.25097   2.27232   2.28388
 Alpha virt. eigenvalues --    2.36629   2.37909   2.40115   2.44181   2.45710
 Alpha virt. eigenvalues --    2.49474   2.52709   2.54973   2.55784   2.63825
 Alpha virt. eigenvalues --    2.63883   2.67375   2.68114   2.71639   2.77013
 Alpha virt. eigenvalues --    2.80944   2.83557   2.84672   2.86886   2.88312
 Alpha virt. eigenvalues --    2.90181   2.95788   3.04688   3.23355   3.36372
 Alpha virt. eigenvalues --    3.36511   3.45317   3.46017   3.51833   3.57592
 Alpha virt. eigenvalues --    3.64127   3.75569   3.86163   4.02268   4.04531
 Alpha virt. eigenvalues --    4.09803   4.17592   4.26780   4.37140   4.61462
     Molecular Orbital Coefficients:
                           1         2         3         4         5
                           O         O         O         O         O
     Eigenvalues --   -77.14470 -77.13927 -19.16096 -19.15807 -19.11726
   1 1   C  1S         -0.00001  -0.00001  -0.00003  -0.00004   0.00001
   2        2S         -0.00002  -0.00004  -0.00015  -0.00017   0.00011
   3        2PX         0.00002  -0.00003   0.00002  -0.00004  -0.00001
   4        2PY         0.00004   0.00003   0.00003   0.00003   0.00002
   5        2PZ         0.00002   0.00002  -0.00003  -0.00001  -0.00009
   6        3S          0.00002   0.00013   0.00078   0.00108   0.00019
   7        3PX         0.00004   0.00000  -0.00034   0.00026   0.00004
   8        3PY         0.00014   0.00012  -0.00034  -0.00060  -0.00030
   9        3PZ         0.00011   0.00011  -0.00014  -0.00021   0.00039
  10        4XX        -0.00002  -0.00002  -0.00001  -0.00008   0.00002
  11        4YY        -0.00006  -0.00005  -0.00005  -0.00005   0.00001
  12        4ZZ        -0.00004  -0.00004  -0.00004  -0.00005  -0.00007
  13        4XY        -0.00001   0.00001   0.00000   0.00000   0.00000
  14        4XZ        -0.00002   0.00002   0.00001  -0.00001  -0.00000
  15        4YZ        -0.00001  -0.00001   0.00002   0.00003  -0.00000
  16 2   H  1S          0.00002   0.00001  -0.00007  -0.00007  -0.00004
  17        2S         -0.00017  -0.00021   0.00003  -0.00015  -0.00036
  18        3PX         0.00002  -0.00002   0.00002  -0.00002  -0.00000
  19        3PY         0.00002   0.00002   0.00002   0.00003   0.00002
  20        3PZ         0.00001   0.00002  -0.00001   0.00001   0.00002
  21 3   H  1S          0.00000  -0.00001   0.00000   0.00000   0.00006
  22        2S         -0.00019  -0.00000  -0.00009   0.00019   0.00012
  23        3PX         0.00001   0.00000  -0.00003   0.00002  -0.00000
  24        3PY         0.00004  -0.00001  -0.00000  -0.00001  -0.00000
  25        3PZ         0.00001  -0.00001  -0.00002   0.00000  -0.00006
  26 4   C  1S         -0.00004  -0.00004  -0.00002  -0.00002  -0.00001
  27        2S         -0.00005  -0.00005  -0.00016  -0.00015   0.00007
  28        2PX        -0.00004   0.00004  -0.00006   0.00004  -0.00002
  29        2PY        -0.00002  -0.00001   0.00000   0.00003   0.00017
  30        2PZ        -0.00001   0.00000   0.00003   0.00003  -0.00025
  31        3S          0.00094   0.00097   0.00090   0.00079  -0.00103
  32        3PX        -0.00041   0.00051  -0.00031   0.00035   0.00004
  33        3PY        -0.00012  -0.00016  -0.00070  -0.00072  -0.00061
  34        3PZ         0.00006  -0.00008  -0.00003  -0.00067   0.00065
  35        4XX        -0.00013  -0.00014   0.00007   0.00006   0.00003
  36        4YY        -0.00009  -0.00010  -0.00003  -0.00002   0.00011
  37        4ZZ        -0.00007  -0.00007  -0.00006  -0.00004   0.00023
  38        4XY        -0.00003   0.00002   0.00004  -0.00004  -0.00001
  39        4XZ         0.00001  -0.00001  -0.00001  -0.00001   0.00001
  40        4YZ         0.00000  -0.00000   0.00002  -0.00003  -0.00014
  41 5   O  1S         -0.00000   0.00001  -0.00004  -0.00003   0.99277
  42        2S         -0.00002   0.00003  -0.00019  -0.00004   0.02591
  43        2PX         0.00001  -0.00000   0.00005  -0.00002  -0.00025
  44        2PY         0.00002   0.00002   0.00002   0.00002  -0.00089
  45        2PZ        -0.00001  -0.00001  -0.00003   0.00000   0.00005
  46        3S         -0.00008  -0.00028   0.00071  -0.00003   0.01185
  47        3PX         0.00005  -0.00012  -0.00023   0.00019  -0.00002
  48        3PY        -0.00003   0.00003  -0.00005   0.00005  -0.00030
  49        3PZ        -0.00014  -0.00012   0.00029   0.00001   0.00031
  50        4XX        -0.00001   0.00001  -0.00008   0.00003  -0.00803
  51        4YY        -0.00001   0.00001  -0.00016  -0.00003  -0.00799
  52        4ZZ        -0.00002   0.00000  -0.00012  -0.00003  -0.00806
  53        4XY         0.00004  -0.00002   0.00003  -0.00003   0.00004
  54        4XZ         0.00001  -0.00002  -0.00003  -0.00000   0.00003
  55        4YZ        -0.00000   0.00000  -0.00003   0.00001   0.00012
  56 6   H  1S         -0.00004  -0.00000  -0.00004  -0.00006   0.00024
  57        2S         -0.00022  -0.00013   0.00040   0.00031  -0.00136
  58        3PX         0.00000  -0.00002  -0.00002   0.00002  -0.00007
  59        3PY         0.00001   0.00002   0.00002   0.00002  -0.00011
  60        3PZ        -0.00002  -0.00003   0.00004   0.00001  -0.00018
  61 7   P  1S          0.99625   0.00025   0.00001   0.00000   0.00000
  62        2S          0.01417  -0.00000  -0.00004   0.00002   0.00002
  63        2PX        -0.00001   0.00001   0.00000   0.00000  -0.00000
  64        2PY         0.00004   0.00000  -0.00004  -0.00000  -0.00000
  65        2PZ        -0.00000   0.00000   0.00001  -0.00001  -0.00001
  66        3S         -0.02719   0.00007   0.00055   0.00009   0.00018
  67        3PX        -0.00011  -0.00007   0.00003   0.00001   0.00008
  68        3PY        -0.00008  -0.00006   0.00028   0.00001   0.00006
  69        3PZ         0.00004  -0.00001  -0.00007   0.00002   0.00001
  70        4S          0.00289   0.00010  -0.00351  -0.00052  -0.00044
  71        4PX         0.00019  -0.00003   0.00039  -0.00030  -0.00010
  72        4PY         0.00008   0.00011  -0.00220   0.00007  -0.00032
  73        4PZ         0.00002  -0.00008   0.00098   0.00001   0.00012
  74        5XX         0.00941  -0.00010   0.00007  -0.00002  -0.00001
  75        5YY         0.00946  -0.00000   0.00001   0.00002   0.00001
  76        5ZZ         0.00945  -0.00001  -0.00020  -0.00000  -0.00004
  77        5XY        -0.00004  -0.00001  -0.00020  -0.00001   0.00001
  78        5XZ         0.00002   0.00000   0.00003   0.00003   0.00000
  79        5YZ        -0.00001   0.00001  -0.00002   0.00003   0.00003
  80 8   P  1S         -0.00025   0.99625   0.00000   0.00001   0.00000
  81        2S          0.00000   0.01418   0.00002  -0.00004   0.00004
  82        2PX        -0.00001   0.00001  -0.00000  -0.00001   0.00000
  83        2PY         0.00000   0.00004  -0.00000  -0.00003  -0.00001
  84        2PZ        -0.00000  -0.00002  -0.00000   0.00002  -0.00000
  85        3S          0.00013  -0.02713   0.00013   0.00051   0.00025
  86        3PX         0.00006   0.00011  -0.00002  -0.00001  -0.00004
  87        3PY        -0.00002  -0.00007   0.00002   0.00024   0.00015
  88        3PZ         0.00004   0.00002   0.00000  -0.00013   0.00000
  89        4S         -0.00016   0.00261  -0.00068  -0.00329  -0.00065
  90        4PX         0.00013  -0.00007   0.00047  -0.00013   0.00026
  91        4PY         0.00011   0.00012   0.00021  -0.00154  -0.00022
  92        4PZ        -0.00004   0.00011  -0.00005   0.00160   0.00031
  93        5XX        -0.00010   0.00940  -0.00002   0.00003   0.00001
  94        5YY        -0.00002   0.00944   0.00002  -0.00004   0.00003
  95        5ZZ        -0.00003   0.00947  -0.00001  -0.00010  -0.00001
  96        5XY         0.00001   0.00004   0.00001   0.00016  -0.00000
  97        5XZ         0.00000  -0.00002  -0.00001  -0.00019  -0.00001
  98        5YZ        -0.00001  -0.00002  -0.00001  -0.00011  -0.00001
  99 9   O  1S          0.00000   0.00002  -0.00004  -0.00000  -0.00003
 100        2S          0.00002   0.00007  -0.00015  -0.00001  -0.00011
 101        2PX         0.00000   0.00002   0.00001   0.00000  -0.00001
 102        2PY        -0.00003   0.00001  -0.00004   0.00002  -0.00003
 103        2PZ        -0.00005   0.00001   0.00004  -0.00001   0.00003
 104        3S          0.00044  -0.00029   0.00090   0.00012   0.00047
 105        3PX        -0.00005  -0.00007  -0.00007   0.00001   0.00009
 106        3PY         0.00018  -0.00007   0.00039  -0.00007   0.00020
 107        3PZ         0.00031  -0.00007   0.00003   0.00006  -0.00007
 108        4XX         0.00001   0.00004  -0.00010   0.00000  -0.00007
 109        4YY        -0.00004   0.00007  -0.00006  -0.00001  -0.00005
 110        4ZZ        -0.00015   0.00006  -0.00009   0.00001  -0.00009
 111        4XY         0.00001  -0.00001   0.00003  -0.00001   0.00002
 112        4XZ         0.00001  -0.00001   0.00002   0.00001  -0.00001
 113        4YZ        -0.00011  -0.00002   0.00002  -0.00000  -0.00001
 114 10  O  1S          0.00000  -0.00001  -0.00002  -0.00004  -0.00003
 115        2S          0.00002   0.00000  -0.00008  -0.00015  -0.00013
 116        2PX        -0.00001  -0.00001  -0.00001   0.00002   0.00001
 117        2PY         0.00000  -0.00003  -0.00000  -0.00003  -0.00004
 118        2PZ        -0.00001  -0.00003  -0.00001   0.00005   0.00001
 119        3S         -0.00005   0.00055   0.00042   0.00088   0.00058
 120        3PX         0.00008   0.00011   0.00000  -0.00002  -0.00004
 121        3PY        -0.00002   0.00030   0.00007   0.00035   0.00022
 122        3PZ         0.00002   0.00023   0.00008  -0.00015  -0.00002
 123        4XX        -0.00001  -0.00001  -0.00006  -0.00012  -0.00011
 124        4YY         0.00002  -0.00013  -0.00005  -0.00006  -0.00007
 125        4ZZ         0.00003  -0.00006  -0.00004  -0.00010  -0.00012
 126        4XY         0.00001  -0.00003  -0.00001  -0.00004  -0.00001
 127        4XZ         0.00001  -0.00002   0.00000   0.00001   0.00000
 128        4YZ        -0.00000  -0.00010   0.00000   0.00001  -0.00000
 129 11  O  1S          0.00000  -0.00001   0.00007   0.99261   0.00002
 130        2S          0.00000  -0.00011   0.00000   0.02582  -0.00005
 131        2PX         0.00000   0.00009   0.00001   0.00040  -0.00001
 132        2PY        -0.00000   0.00010  -0.00000  -0.00048   0.00000
 133        2PZ         0.00000  -0.00009   0.00000   0.00059  -0.00001
 134        3S         -0.00004   0.00090  -0.00002   0.01328   0.00029
 135        3PX        -0.00002  -0.00011  -0.00006  -0.00075   0.00004
 136        3PY        -0.00000  -0.00030  -0.00000  -0.00005  -0.00001
 137        3PZ        -0.00001   0.00024  -0.00003  -0.00002  -0.00000
 138        4XX         0.00000  -0.00012  -0.00001  -0.00847   0.00002
 139        4YY         0.00001  -0.00007  -0.00000  -0.00840  -0.00001
 140        4ZZ         0.00000  -0.00007  -0.00001  -0.00840  -0.00002
 141        4XY         0.00001  -0.00012   0.00000   0.00000  -0.00002
 142        4XZ        -0.00000   0.00012  -0.00000   0.00002   0.00003
 143        4YZ        -0.00000   0.00006   0.00000   0.00004   0.00002
 144 12  O  1S         -0.00000   0.00000   0.99260  -0.00007  -0.00002
 145        2S         -0.00010   0.00001   0.02577  -0.00002  -0.00009
 146        2PX        -0.00010  -0.00000  -0.00031  -0.00001  -0.00001
 147        2PY         0.00013  -0.00000  -0.00075   0.00000  -0.00000
 148        2PZ        -0.00003  -0.00000   0.00024   0.00000  -0.00001
 149        3S          0.00081  -0.00009   0.01357   0.00006   0.00042
 150        3PX         0.00013   0.00001   0.00085   0.00006   0.00012
 151        3PY        -0.00035   0.00000   0.00001  -0.00000   0.00001
 152        3PZ         0.00007   0.00002  -0.00020  -0.00001  -0.00001
 153        4XX        -0.00014   0.00000  -0.00853  -0.00002  -0.00004
 154        4YY        -0.00008   0.00001  -0.00848  -0.00001  -0.00006
 155        4ZZ        -0.00001   0.00000  -0.00842  -0.00002  -0.00006
 156        4XY         0.00017  -0.00001  -0.00001  -0.00000   0.00001
 157        4XZ        -0.00003   0.00000  -0.00002   0.00000  -0.00001
 158        4YZ         0.00001  -0.00000   0.00002   0.00000   0.00000
 159 13  O  1S          0.00001   0.00001  -0.00000  -0.00001   0.00001
 160        2S         -0.00002   0.00003   0.00008  -0.00005   0.00003
 161        2PX         0.00002   0.00002  -0.00001   0.00000  -0.00000
 162        2PY        -0.00011   0.00001  -0.00003  -0.00000   0.00000
 163        2PZ         0.00014  -0.00000  -0.00004   0.00001  -0.00001
 164        3S          0.00042  -0.00011  -0.00042   0.00026  -0.00015
 165        3PX        -0.00007  -0.00007  -0.00002   0.00001   0.00000
 166        3PY         0.00023  -0.00004   0.00031   0.00004   0.00002
 167        3PZ        -0.00031   0.00002   0.00002  -0.00007   0.00002
 168        4XX         0.00007   0.00001   0.00006  -0.00004   0.00003
 169        4YY        -0.00004   0.00003   0.00013  -0.00003   0.00003
 170        4ZZ        -0.00009   0.00003   0.00009  -0.00002   0.00003
 171        4XY        -0.00000  -0.00001   0.00001   0.00000  -0.00001
 172        4XZ         0.00000   0.00000   0.00002  -0.00000   0.00000
 173        4YZ         0.00015   0.00001  -0.00003  -0.00000  -0.00000
 174 14  O  1S          0.00001   0.00001  -0.00001  -0.00000   0.00001
 175        2S          0.00002  -0.00004  -0.00006   0.00007   0.00005
 176        2PX        -0.00002   0.00002   0.00001  -0.00001   0.00000
 177        2PY         0.00001  -0.00005   0.00001  -0.00004  -0.00000
 178        2PZ        -0.00001   0.00017   0.00001  -0.00002  -0.00001
 179        3S         -0.00007   0.00050   0.00034  -0.00037  -0.00021
 180        3PX         0.00004  -0.00002  -0.00008   0.00007  -0.00001
 181        3PY        -0.00003   0.00010  -0.00004   0.00027  -0.00000
 182        3PZ         0.00003  -0.00041  -0.00007  -0.00011   0.00002
 183        4XX         0.00002   0.00005  -0.00004   0.00005   0.00004
 184        4YY         0.00004   0.00003  -0.00004   0.00010   0.00004
 185        4ZZ         0.00002  -0.00017  -0.00003   0.00011   0.00005
 186        4XY         0.00000   0.00002  -0.00000  -0.00002   0.00001
 187        4XZ        -0.00001  -0.00005   0.00001  -0.00001  -0.00000
 188        4YZ         0.00001   0.00009   0.00001  -0.00003   0.00001
 189 15  H  1S         -0.00001   0.00000   0.00001  -0.00006   0.00006
 190        2S         -0.00001  -0.00022   0.00017   0.00017   0.00010
 191        3PX        -0.00001  -0.00001  -0.00001  -0.00001  -0.00000
 192        3PY        -0.00001   0.00004  -0.00001  -0.00001   0.00000
 193        3PZ        -0.00001   0.00001  -0.00000  -0.00001  -0.00005
 194 16  H  1S          0.00001  -0.00007   0.00004   0.00049  -0.00006
 195        2S         -0.00002  -0.00021  -0.00007  -0.00092  -0.00006
 196        3PX         0.00000  -0.00000  -0.00000   0.00003   0.00003
 197        3PY         0.00000   0.00002   0.00001   0.00003  -0.00001
 198        3PZ        -0.00000  -0.00001  -0.00000  -0.00003   0.00000
 199 17  H  1S         -0.00007   0.00001   0.00051   0.00002  -0.00000
 200        2S         -0.00020  -0.00001  -0.00088  -0.00003   0.00000
 201        3PX         0.00000   0.00000  -0.00001   0.00000  -0.00000
 202        3PY         0.00002   0.00000   0.00005   0.00001   0.00000
 203        3PZ        -0.00001  -0.00000  -0.00000  -0.00000  -0.00000
                           6         7         8         9        10
                           O         O         O         O         O
     Eigenvalues --   -19.05003 -19.04630 -19.00452 -18.99010 -10.21122
   1 1   C  1S         -0.00003  -0.00002   0.00002   0.00001   0.00208
   2        2S         -0.00011  -0.00009   0.00008   0.00004  -0.00021
   3        2PX         0.00004  -0.00005   0.00001   0.00001   0.00001
   4        2PY         0.00003   0.00001  -0.00001  -0.00001  -0.00002
   5        2PZ        -0.00001   0.00001   0.00002   0.00001   0.00005
   6        3S          0.00063   0.00031  -0.00051  -0.00023   0.00560
   7        3PX        -0.00036   0.00037   0.00006  -0.00013  -0.00014
   8        3PY        -0.00030  -0.00020   0.00033   0.00026  -0.00109
   9        3PZ        -0.00022  -0.00003   0.00011  -0.00004  -0.00201
  10        4XX        -0.00006  -0.00002   0.00004   0.00003  -0.00012
  11        4YY        -0.00005  -0.00002   0.00001  -0.00000  -0.00035
  12        4ZZ        -0.00003  -0.00001   0.00001   0.00002  -0.00028
  13        4XY        -0.00001  -0.00001  -0.00001   0.00000   0.00001
  14        4XZ         0.00000   0.00001  -0.00002   0.00001   0.00000
  15        4YZ         0.00002  -0.00000  -0.00001   0.00000  -0.00017
  16 2   H  1S         -0.00006   0.00001   0.00006   0.00004  -0.00010
  17        2S          0.00016  -0.00005  -0.00005   0.00005  -0.00002
  18        3PX         0.00001   0.00000  -0.00001   0.00001  -0.00000
  19        3PY         0.00000  -0.00002  -0.00000  -0.00000   0.00002
  20        3PZ        -0.00001   0.00001   0.00000  -0.00000  -0.00002
  21 3   H  1S         -0.00005   0.00002   0.00002  -0.00001  -0.00021
  22        2S         -0.00018   0.00022  -0.00005  -0.00007  -0.00053
  23        3PX         0.00002   0.00001  -0.00001  -0.00001  -0.00001
  24        3PY         0.00002  -0.00002  -0.00000  -0.00001  -0.00003
  25        3PZ         0.00001  -0.00000   0.00000  -0.00001  -0.00001
  26 4   C  1S         -0.00001  -0.00001  -0.00002  -0.00004   0.99326
  27        2S         -0.00009  -0.00008  -0.00011  -0.00020   0.04973
  28        2PX        -0.00004   0.00001   0.00003  -0.00000  -0.00007
  29        2PY         0.00004   0.00002  -0.00003  -0.00001   0.00052
  30        2PZ        -0.00003  -0.00003  -0.00002   0.00002  -0.00053
  31        3S          0.00032   0.00038   0.00094   0.00128  -0.02012
  32        3PX        -0.00002   0.00040  -0.00073   0.00041   0.00018
  33        3PY        -0.00082  -0.00032   0.00012  -0.00049  -0.00151
  34        3PZ         0.00011   0.00016   0.00017   0.00029   0.00026
  35        4XX         0.00002   0.00002  -0.00001  -0.00002  -0.00860
  36        4YY         0.00002   0.00002   0.00000  -0.00003  -0.00858
  37        4ZZ        -0.00002   0.00000  -0.00002  -0.00008  -0.00843
  38        4XY         0.00004  -0.00005   0.00003  -0.00003   0.00001
  39        4XZ        -0.00000   0.00001  -0.00002   0.00000   0.00001
  40        4YZ        -0.00002  -0.00003  -0.00001   0.00002  -0.00001
  41 5   O  1S          0.00002   0.00003  -0.00003  -0.00005  -0.00015
  42        2S          0.00004   0.00008  -0.00012  -0.00017  -0.00044
  43        2PX        -0.00003   0.00003   0.00004  -0.00003  -0.00000
  44        2PY        -0.00002  -0.00003  -0.00000   0.00004   0.00005
  45        2PZ         0.00001   0.00001   0.00002  -0.00002  -0.00010
  46        3S         -0.00002  -0.00022   0.00053   0.00069   0.00416
  47        3PX         0.00011  -0.00016  -0.00017   0.00012   0.00001
  48        3PY         0.00009   0.00010  -0.00013  -0.00016  -0.00029
  49        3PZ         0.00001  -0.00006  -0.00012   0.00016   0.00083
  50        4XX         0.00004   0.00006  -0.00006  -0.00013  -0.00018
  51        4YY         0.00003   0.00006  -0.00006  -0.00012  -0.00039
  52        4ZZ         0.00006   0.00007  -0.00013  -0.00013  -0.00070
  53        4XY        -0.00000   0.00001   0.00004  -0.00003   0.00001
  54        4XZ         0.00001  -0.00001   0.00001  -0.00001  -0.00001
  55        4YZ         0.00001   0.00002   0.00001  -0.00002   0.00029
  56 6   H  1S          0.00006   0.00003  -0.00004  -0.00004   0.00006
  57        2S         -0.00018  -0.00019  -0.00028   0.00019  -0.00051
  58        3PX         0.00000   0.00000   0.00003   0.00000   0.00004
  59        3PY        -0.00001  -0.00002   0.00006   0.00000  -0.00006
  60        3PZ        -0.00002  -0.00002  -0.00006   0.00002   0.00009
  61 7   P  1S          0.00001  -0.00000   0.00001  -0.00000   0.00000
  62        2S         -0.00007  -0.00007   0.00003   0.00000  -0.00008
  63        2PX        -0.00001   0.00001  -0.00002  -0.00001  -0.00003
  64        2PY         0.00000   0.00001   0.00003   0.00001  -0.00003
  65        2PZ        -0.00001   0.00001   0.00006   0.00001  -0.00000
  66        3S          0.00076  -0.00023   0.00036  -0.00004   0.00001
  67        3PX         0.00012  -0.00009   0.00014   0.00003   0.00046
  68        3PY        -0.00005  -0.00005  -0.00004  -0.00003   0.00039
  69        3PZ         0.00014  -0.00005  -0.00013  -0.00014   0.00004
  70        4S         -0.00309   0.00106  -0.00368  -0.00021   0.00385
  71        4PX        -0.00087   0.00072  -0.00090  -0.00008   0.00134
  72        4PY         0.00138  -0.00021   0.00057   0.00006   0.00134
  73        4PZ        -0.00157  -0.00011   0.00147   0.00020  -0.00103
  74        5XX        -0.00026  -0.00008   0.00003   0.00003  -0.00001
  75        5YY        -0.00017  -0.00005  -0.00000   0.00002   0.00006
  76        5ZZ        -0.00012  -0.00003   0.00017  -0.00001  -0.00005
  77        5XY         0.00002   0.00001   0.00003  -0.00003   0.00011
  78        5XZ         0.00003  -0.00001  -0.00005  -0.00006   0.00005
  79        5YZ        -0.00011   0.00001   0.00017   0.00002  -0.00008
  80 8   P  1S         -0.00000   0.00002  -0.00000   0.00001   0.00000
  81        2S         -0.00002  -0.00004  -0.00005   0.00003  -0.00009
  82        2PX        -0.00000   0.00002   0.00000   0.00002   0.00003
  83        2PY         0.00000  -0.00000   0.00001   0.00005  -0.00002
  84        2PZ        -0.00001  -0.00001   0.00000   0.00004   0.00001
  85        3S         -0.00006   0.00088  -0.00020   0.00023  -0.00003
  86        3PX         0.00006  -0.00015   0.00003  -0.00011  -0.00045
  87        3PY         0.00001  -0.00001  -0.00005  -0.00007   0.00029
  88        3PZ         0.00004   0.00018   0.00002  -0.00010  -0.00006
  89        4S         -0.00006  -0.00369   0.00135  -0.00345   0.00392
  90        4PX         0.00001   0.00074  -0.00078   0.00092  -0.00167
  91        4PY        -0.00002   0.00077  -0.00008   0.00101   0.00093
  92        4PZ        -0.00015  -0.00211   0.00009   0.00107  -0.00078
  93        5XX        -0.00003  -0.00024  -0.00002   0.00004  -0.00004
  94        5YY        -0.00003  -0.00022  -0.00005   0.00016   0.00003
  95        5ZZ        -0.00004  -0.00006  -0.00001   0.00005  -0.00002
  96        5XY         0.00002  -0.00003   0.00001   0.00002  -0.00010
  97        5XZ        -0.00003   0.00002   0.00004   0.00008   0.00000
  98        5YZ        -0.00001  -0.00004  -0.00001   0.00016  -0.00004
  99 9   O  1S         -0.00005   0.00001   0.99282   0.00021   0.00004
 100        2S         -0.00012   0.00014   0.02561   0.00005   0.00018
 101        2PX        -0.00002   0.00001  -0.00017   0.00008  -0.00005
 102        2PY         0.00005  -0.00000   0.00032  -0.00001  -0.00002
 103        2PZ        -0.00003   0.00003   0.00043   0.00001  -0.00002
 104        3S          0.00067  -0.00070   0.01177  -0.00013  -0.00121
 105        3PX         0.00011  -0.00006   0.00012  -0.00016   0.00008
 106        3PY        -0.00018  -0.00004   0.00034   0.00003  -0.00012
 107        3PZ         0.00034  -0.00019   0.00052  -0.00002  -0.00011
 108        4XX        -0.00007   0.00011  -0.00796   0.00006   0.00011
 109        4YY        -0.00010   0.00010  -0.00795   0.00010   0.00011
 110        4ZZ        -0.00005   0.00009  -0.00797   0.00009   0.00010
 111        4XY         0.00001  -0.00001   0.00001   0.00002   0.00012
 112        4XZ         0.00001  -0.00001   0.00001  -0.00001  -0.00000
 113        4YZ         0.00001  -0.00000  -0.00002  -0.00001   0.00004
 114 10  O  1S         -0.00001  -0.00005  -0.00015   0.99284   0.00008
 115        2S         -0.00009  -0.00015   0.00013   0.02561   0.00032
 116        2PX         0.00004   0.00000  -0.00005   0.00025  -0.00003
 117        2PY         0.00000   0.00003   0.00001   0.00040   0.00000
 118        2PZ        -0.00004  -0.00006  -0.00002   0.00028   0.00000
 119        3S          0.00035   0.00085  -0.00068   0.01160  -0.00169
 120        3PX        -0.00016   0.00001   0.00009  -0.00007   0.00019
 121        3PY         0.00001  -0.00000  -0.00011   0.00054  -0.00034
 122        3PZ         0.00014   0.00044  -0.00002   0.00032  -0.00012
 123        4XX        -0.00006  -0.00009   0.00012  -0.00792   0.00023
 124        4YY        -0.00009  -0.00010   0.00014  -0.00792   0.00023
 125        4ZZ        -0.00008  -0.00008   0.00013  -0.00792   0.00020
 126        4XY         0.00001  -0.00001   0.00001  -0.00001  -0.00004
 127        4XZ        -0.00003  -0.00001  -0.00003  -0.00001   0.00004
 128        4YZ         0.00002   0.00003  -0.00000  -0.00001   0.00001
 129 11  O  1S         -0.00000   0.00004   0.00000  -0.00003   0.00004
 130        2S         -0.00001   0.00004   0.00001  -0.00014   0.00019
 131        2PX         0.00000  -0.00002  -0.00001   0.00002   0.00003
 132        2PY        -0.00000  -0.00001   0.00000   0.00001  -0.00001
[...]
     1  C    5.032649   0.362383   0.357166   0.313008  -0.053430   0.007818
     2  H    0.362383   0.606410  -0.027061  -0.030960   0.003707  -0.000342
     3  H    0.357166  -0.027061   0.631013  -0.032334   0.002445   0.000019
     4  C    0.313008  -0.030960  -0.032334   5.738552   0.115776  -0.036687
     5  O   -0.053430   0.003707   0.002445   0.115776   8.288746   0.263737
     6  H    0.007818  -0.000342   0.000019  -0.036687   0.263737   0.405698
     7  P   -0.028300   0.003925  -0.003251   0.186865  -0.003334  -0.009633
     8  P   -0.015092   0.003045   0.000267   0.138081   0.015035   0.000127
     9  O    0.000560   0.000010  -0.000015  -0.044848  -0.021739   0.058325
    10  O    0.001072  -0.000009  -0.000026  -0.050727  -0.001130   0.001208
    11  O   -0.007673  -0.000362  -0.000025  -0.031759  -0.001366  -0.000169
    12  O   -0.000826  -0.001003   0.010372  -0.038694  -0.000524   0.000006
    13  O   -0.001875   0.000883   0.000033  -0.042463   0.000381   0.000096
    14  O   -0.000105   0.005791   0.000106  -0.044842   0.000388  -0.000003
    15  H    0.357913  -0.031959  -0.033970  -0.030759  -0.001427  -0.000396
    16  H    0.000169  -0.000066   0.000018   0.001486   0.000053   0.000001
    17  H    0.001046   0.000152  -0.000469   0.000565  -0.000014   0.000010
               7          8          9         10         11         12
     1  C   -0.028300  -0.015092   0.000560   0.001072  -0.007673  -0.000826
     2  H    0.003925   0.003045   0.000010  -0.000009  -0.000362  -0.001003
     3  H   -0.003251   0.000267  -0.000015  -0.000026  -0.000025   0.010372
     4  C    0.186865   0.138081  -0.044848  -0.050727  -0.031759  -0.038694
     5  O   -0.003334   0.015035  -0.021739  -0.001130  -0.001366  -0.000524
     6  H   -0.009633   0.000127   0.058325   0.001208  -0.000169   0.000006
     7  P   12.671298  -0.012115   0.499679   0.018077  -0.000331   0.205835
     8  P   -0.012115  12.644900  -0.004244   0.536340   0.193424  -0.001410
     9  O    0.499679  -0.004244   8.298394  -0.000616  -0.000002  -0.039855
    10  O    0.018077   0.536340  -0.000616   8.278642  -0.038204   0.000000
    11  O   -0.000331   0.193424  -0.000002  -0.038204   8.279681  -0.000000
    12  O    0.205835  -0.001410  -0.039855   0.000000  -0.000000   8.241490
    13  O    0.523236   0.020041  -0.030401  -0.001261  -0.000001  -0.040167
    14  O   -0.003511   0.526516   0.000009  -0.033203  -0.041986  -0.000001
    15  H   -0.000298  -0.003037  -0.000050  -0.000009   0.010980   0.000279
    16  H    0.000059  -0.006853  -0.000000   0.001074   0.287921   0.000000
    17  H   -0.007349  -0.000063   0.001425   0.000002   0.000000   0.289895
              13         14         15         16         17
     1  C   -0.001875  -0.000105   0.357913   0.000169   0.001046
     2  H    0.000883   0.005791  -0.031959  -0.000066   0.000152
     3  H    0.000033   0.000106  -0.033970   0.000018  -0.000469
     4  C   -0.042463  -0.044842  -0.030759   0.001486   0.000565
     5  O    0.000381   0.000388  -0.001427   0.000053  -0.000014
     6  H    0.000096  -0.000003  -0.000396   0.000001   0.000010
     7  P    0.523236  -0.003511  -0.000298   0.000059  -0.007349
     8  P    0.020041   0.526516  -0.003037  -0.006853  -0.000063
     9  O   -0.030401   0.000009  -0.000050  -0.000000   0.001425
    10  O   -0.001261  -0.033203  -0.000009   0.001074   0.000002
    11  O   -0.000001  -0.041986   0.010980   0.287921   0.000000
    12  O   -0.040167  -0.000001   0.000279   0.000000   0.289895
    13  O    8.268061  -0.000970  -0.000051   0.000002   0.001572
    14  O   -0.000970   8.314732  -0.000888   0.005999  -0.000005
    15  H   -0.000051  -0.000888   0.641115  -0.000119  -0.000000
    16  H    0.000002   0.005999  -0.000119   0.392588   0.000000
    17  H    0.001572  -0.000005  -0.000000   0.000000   0.386535
 Mulliken charges:
               1
     1  C   -0.326483
     2  H    0.105457
     3  H    0.095711
     4  C   -0.110260
     5  O   -0.607306
     6  H    0.310184
     7  P    0.959148
     8  P    0.965036
     9  O   -0.716633
    10  O   -0.711230
    11  O   -0.650127
    12  O   -0.625396
    13  O   -0.697116
    14  O   -0.728025
    15  H    0.092675
    16  H    0.317668
    17  H    0.326697
 Sum of Mulliken charges =  -2.00000
 Mulliken charges with hydrogens summed into heavy atoms:
               1
     1  C   -0.032640
     4  C   -0.110260
     5  O   -0.297121
     7  P    0.959148
     8  P    0.965036
     9  O   -0.716633
    10  O   -0.711230
    11  O   -0.332459
    12  O   -0.298699
    13  O   -0.697116
    14  O   -0.728025
 Electronic spatial extent (au):  <R**2>=           1998.0456
 Charge=             -2.0000 electrons
 Dipole moment (field-independent basis, Debye):
    X=             -0.7132    Y=              9.3327    Z=              3.1151  Tot=              9.8647
 Quadrupole moment (field-independent basis, Debye-Ang):
   XX=           -111.7977   YY=            -98.7400   ZZ=            -97.2776
   XY=              2.2104   XZ=             -4.4657   YZ=              6.5227
 Traceless Quadrupole moment (field-independent basis, Debye-Ang):
   XX=             -9.1926   YY=              3.8651   ZZ=              5.3275
   XY=              2.2104   XZ=             -4.4657   YZ=              6.5227
 Octapole moment (field-independent basis, Debye-Ang**2):
  XXX=             18.1950  YYY=             18.8817  ZZZ=             -5.6513  XYY=              2.0125
  XXY=             32.5750  XXZ=             25.1992  XZZ=            -16.1599  YZZ=             18.1559
  YYZ=              7.4410  XYZ=              0.4445
 Hexadecapole moment (field-independent basis, Debye-Ang**3):
 XXXX=          -1517.6119 YYYY=           -609.9849 ZZZZ=           -478.7069 XXXY=             36.3733
 XXXZ=            -24.6253 YYYX=             10.7329 YYYZ=              2.4130 ZZZX=            -41.2755
 ZZZY=              9.8663 XXYY=           -363.4305 XXZZ=           -355.5418 YYZZ=           -200.4174
 XXYZ=             22.1988 YYXZ=             12.9422 ZZXY=            -13.9456
 N-N= 9.753995487178D+02 E-N=-5.039530560683D+03  KE= 1.281635490422D+03
 Orbital energies and kinetic energies (alpha):
                                 1                 2
   1         O               -77.148287        106.045602
   2         O               -77.137352        106.045673
   3         O               -19.133877         29.027011
   4         O               -19.122463         29.027266
   5         O               -19.116588         29.028315
   6         O               -19.063068         29.028558
   7         O               -19.060818         29.028420
   8         O               -19.049862         29.028022
   9         O               -19.049841         29.028746
  10         O               -10.205571         15.891012
  11         O               -10.160985         15.883092
  12         O                -6.597135         15.694371
  13         O                -6.585985         15.694720
  14         O                -4.762092         14.709526
  15         O                -4.759203         14.707978
  16         O                -4.758963         14.708305
  17         O                -4.751079         14.710576
  18         O                -4.747971         14.706735
  19         O                -4.747789         14.709594
  20         O                -1.007345          2.478527
  21         O                -0.994891          2.533108
  22         O                -0.981477          2.573412
  23         O                -0.923347          2.785026
  24         O                -0.912524          2.779482
  25         O                -0.886107          2.892390
  26         O                -0.873871          2.891084
  27         O                -0.726429          1.534704
  28         O                -0.598245          1.772420
  29         O                -0.546884          2.107837
  30         O                -0.510351          2.081752
  31         O                -0.488889          1.656000
  32         O                -0.447097          1.674325
  33         O                -0.415003          2.246603
  34         O                -0.403820          2.135429
  35         O                -0.398096          1.651801
  36         O                -0.374668          1.687465
  37         O                -0.368708          2.148239
  38         O                -0.366962          1.604707
  39         O                -0.350856          1.842840
  40         O                -0.336688          1.968377
  41         O                -0.331834          2.439773
  42         O                -0.322761          2.436469
  43         O                -0.294848          2.177305
  44         O                -0.291060          2.165460
  45         O                -0.272599          2.150757
  46         O                -0.271414          2.104550
  47         O                -0.254964          2.196783
  48         O                -0.244249          2.145108
  49         O                -0.238836          2.198434
  50         O                -0.232581          2.262411
  51         O                -0.228772          2.259655
  52         O                -0.219047          2.285824
  53         O                -0.204682          2.246168
  54         V                 0.082482          1.536297
  55         V                 0.108051          1.479394
  56         V                 0.118486          1.937599
  57         V                 0.126262          1.778924
  58         V                 0.162382          1.564594
  59         V                 0.168707          1.350179
  60         V                 0.178042          2.096410
  61         V                 0.179843          2.058459
  62         V                 0.189647          2.145918
  63         V                 0.210537          1.774325
  64         V                 0.214624          2.054727
  65         V                 0.226938          1.960870
  66         V                 0.239295          1.811195
  67         V                 0.262991          1.562872
  68         V                 0.274072          2.764774
  69         V                 0.295915          1.937726
  70         V                 0.358707          2.425426
  71         V                 0.369769          2.497086
  72         V                 0.411384          2.452752
  73         V                 0.415860          2.523736
  74         V                 0.446541          2.242843
  75         V                 0.447459          2.107578
  76         V                 0.482856          2.456359
  77         V                 0.507358          2.530726
  78         V                 0.577605          2.197192
  79         V                 0.600102          2.397313
  80         V                 0.607519          2.301483
  81         V                 0.664606          2.380898
  82         V                 0.673193          2.503981
  83         V                 0.689008          2.445937
  84         V                 0.733254          2.162410
  85         V                 0.778186          2.518602
  86         V                 0.785694          2.533932
  87         V                 0.801786          2.799331
  88         V                 0.814359          2.576187
  89         V                 0.829403          2.601824
  90         V                 0.856388          2.505131
  91         V                 0.859257          2.641998
  92         V                 0.870008          2.634016
  93         V                 0.899409          2.543503
  94         V                 0.919964          2.608571
  95         V                 0.925549          2.512154
  96         V                 0.932768          2.813027
  97         V                 0.942651          2.802414
  98         V                 0.952144          2.687634
  99         V                 0.966303          2.783148
 100         V                 0.992124          3.055283
 101         V                 1.015943          3.093211
 102         V                 1.034279          3.101286
 103         V                 1.037580          3.021055
 104         V                 1.056178          2.975403
 105         V                 1.059015          3.359688
 106         V                 1.068268          3.215543
 107         V                 1.078242          2.811407
 108         V                 1.088355          3.297025
 109         V                 1.094149          3.406403
 110         V                 1.111898          3.308707
 111         V                 1.125657          3.245914
 112         V                 1.135557          3.086744
 113         V                 1.173847          3.460184
 114         V                 1.189307          3.618286
 115         V                 1.213675          3.871539
 116         V                 1.229174          3.993679
 117         V                 1.239909          3.819021
 118         V                 1.257894          3.462138
 119         V                 1.263257          3.474389
 120         V                 1.294489          3.186623
 121         V                 1.349833          2.997570
 122         V                 1.373131          2.899292
 123         V                 1.434315          2.739074
 124         V                 1.445125          2.654663
 125         V                 1.470989          2.744226
 126         V                 1.500550          2.773293
 127         V                 1.523794          2.775419
 128         V                 1.562347          2.726930
 129         V                 1.605211          2.667981
 130         V                 1.612850          2.676331
 131         V                 1.651258          2.816814
 132         V                 1.663972          2.756038
 133         V                 1.705008          2.792152
 134         V                 1.721986          2.861807
 135         V                 1.727469          2.871743
 136         V                 1.776501          2.855505
 137         V                 1.820184          2.943830
 138         V                 1.842382          2.945750
 139         V                 1.857287          2.911795
 140         V                 1.861642          2.853421
 141         V                 1.878061          2.930965
 142         V                 1.881355          2.920684
 143         V                 1.894976          3.060102
 144         V                 1.902959          2.986233
 145         V                 1.908369          3.030716
 146         V                 1.923102          3.040756
 147         V                 1.943145          3.031306
 148         V                 1.951905          3.136413
 149         V                 1.973315          3.155874
 150         V                 2.020531          3.291967
 151         V                 2.039300          3.511352
 152         V                 2.054309          3.203440
 153         V                 2.069464          3.259034
 154         V                 2.078283          3.381510
 155         V                 2.096754          3.264128
 156         V                 2.129887          3.300340
 157         V                 2.132045          3.310477
 158         V                 2.156174          3.381498
 159         V                 2.180205          3.477382
 160         V                 2.196862          3.442055
 161         V                 2.226919          3.384956
 162         V                 2.289641          3.574668
 163         V                 2.309521          3.575751
 164         V                 2.353643          3.552199
 165         V                 2.381482          3.773241
 166         V                 2.414530          3.722479
 167         V                 2.453893          3.797006
 168         V                 2.466059          3.766108
 169         V                 2.511987          3.891855
 170         V                 2.524591          3.761960
 171         V                 2.547901          4.547758
 172         V                 2.561296          4.124144
 173         V                 2.662967          3.602108
 174         V                 2.669311          3.597894
 175         V                 2.698735          3.668243
 176         V                 2.734086          3.789860
 177         V                 2.741897          3.788319
 178         V                 2.763015          3.975268
 179         V                 2.804114          4.388692
 180         V                 2.821077          4.347331
 181         V                 2.851438          4.414606
 182         V                 2.873771          4.792897
 183         V                 2.883597          4.601046
 184         V                 2.899614          4.093865
 185         V                 2.959709          4.380943
 186         V                 3.035333          4.542946
 187         V                 3.235190          4.960448
 188         V                 3.398605          6.392620
 189         V                 3.413339          6.402494
 190         V                 3.461036          5.244532
 191         V                 3.471049          5.356998
 192         V                 3.512977          6.229654
 193         V                 3.559046          9.989388
 194         V                 3.608168         10.269630
 195         V                 3.850694          9.491503
 196         V                 3.888436         10.202845
 197         V                 3.937010          9.895004
 198         V                 3.983154         10.472671
 199         V                 4.044352         10.586931
 200         V                 4.137985         10.560847
 201         V                 4.244517         10.665459
 202         V                 4.413405         10.534872
 203         V                 4.605342         10.319587
 Total kinetic energy from orbitals= 1.281635490422D+03
 No NMR shielding tensors so no spin-rotation constants.
 Leave Link  601 at Mon Feb  8 11:32:32 2021, MaxMem=   536870912 cpu:               1.8 elap:               0.2
 (Enter /opt/g16//g16/l9999.exe)

 Test job not archived.
 1\1\GINC-BATAGIN1\FOpt\RB3LYP\6-31G(d,p)\C2H6O7P2(2-)\ORISON\08-Feb-20
 21\0\\#P B3LYP/6-31G(d,p) # Opt SCRF=(Solvent=Water) # Gfinput IOP(6/7
 =3) Pop=full Density Test # Units(Ang,Deg)\\pre-eti-2dp.log\\-2,1\C,-0
 .0558097046,1.9341936628,0.4322870101\H,-0.0943839875,1.7841571384,1.5
 142076986\H,-0.9261325482,2.517576788,0.121169146\C,-0.0193384917,0.59
 42092717,-0.3041950379\O,0.0286425408,0.8711826421,-1.7216798357\H,-0.
 4884527012,0.1330293198,-2.1041506632\P,-1.5826330993,-0.4215922262,-0
 .054339804\P,1.5155368278,-0.3685216498,0.1783437663\O,-1.8437251262,-
 1.0575550701,-1.4123931695\O,1.5551415412,-1.6757492015,-0.5834779604\
 O,2.7098736519,0.6138404541,-0.481281824\O,-2.7752689272,0.7391461649,
 0.1149593458\O,-1.5543704456,-1.2418234372,1.2155673319\O,1.7259700577
 ,-0.3306732414,1.6810718565\H,0.8487356843,2.5075058259,0.2030903064\H
 ,3.1119216762,1.0858335493,0.2611112262\H,-2.8599943784,0.9634812392,1
 .0523050671\\Version=EM64L-G16RevA.03\State=1-A\HF=-1289.5420667\RMSD=
 8.188e-09\RMSF=2.637e-05\Dipole=-0.3810674,3.8214906,0.5600863\Quadrup
 ole=-6.4310748,4.5710618,1.860013,0.583562,-4.1280437,4.7256341\PG=C01
  [X(C2H6O7P2)]\\@


     SCHOPENHAUER'S LAW OF ENTROPY
 IF YOU PUT A SPOONFUL OF WINE IN A BARREL FULL
 OF SEWAGE, YOU GET SEWAGE.
 IF YOU PUT A SPOONFUL OF SEWAGE IN A BARREL FULL
 OF WINE, YOU GET SEWAGE.
 Job cpu time:       0 days  2 hours 32 minutes 30.6 seconds.
 Elapsed time:       0 days  0 hours 19 minutes 10.5 seconds.
 File lengths (MBytes):  RWF=    119 Int=      0 D2E=      0 Chk=      7 Scr=      1
 Normal termination of Gaussian 16 at Mon Feb  8 11:32:32 2021.
