 Entering Gaussian System, Link 0=g16
 Input=eti-2dp_neutral_scf_g09.com
 Output=eti-2dp_neutral_scf_g09.log
 Initial command:
 /opt/g16//g16/l1.exe "/home/orison/scrgauss/Gau-14123.inp" -scrdir="/home/orison/scrgauss/"
 Entering Link 1 = /opt/g16//g16/l1.exe PID=     14125.
  
 Copyright (c) 1988,1990,1992,1993,1995,1998,2003,2009,2016,
            Gaussian, Inc.  All Rights Reserved.
  
 This is part of the Gaussian(R) 16 program.  It is based on
 the Gaussian(R) 09 system (copyright 2009, Gaussian, Inc.),
 the Gaussian(R) 03 system (copyright 2003, Gaussian, Inc.),
 the Gaussian(R) 98 system (copyright 1998, Gaussian, Inc.),
 the Gaussian(R) 94 system (copyright 1995, Gaussian, Inc.),
 the Gaussian 92(TM) system (copyright 1992, Gaussian, Inc.),
 the Gaussian 90(TM) system (copyright 1990, Gaussian, Inc.),
 the Gaussian 88(TM) system (copyright 1988, Gaussian, Inc.),
 the Gaussian 86(TM) system (copyright 1986, Carnegie Mellon
 University), and the Gaussian 82(TM) system (copyright 1983,
 Carnegie Mellon University). Gaussian is a federally registered
 trademark of Gaussian, Inc.
  
 This software contains proprietary and confidential information,
 including trade secrets, belonging to Gaussian, Inc.
  
 This software is provided under written license and may be
 used, copied, transmitted, or stored only in accord with that
 written license.
  
 The following legend is applicable only to US Government
 contracts under FAR:
  
                    RESTRICTED RIGHTS LEGEND
  
 Use, reproduction and disclosure by the US Government is
 subject to restrictions as set forth in subparagraphs (a)
 and (c) of the Commercial Computer Software - Restricted
 Rights clause in FAR 52.227-19.
  
 Gaussian, Inc.
 340 Quinnipiac St., Bldg. 40, Wallingford CT 06492
  
  
 ---------------------------------------------------------------
 Warning -- This program may not be used in any manner that
 competes with the business of Gaussian, Inc. or will provide
 assistance to any competitor of Gaussian, Inc.  The licensee
 of this program is prohibited from giving any competitor of
 Gaussian, Inc. access to this program.  By using this program,
 the user acknowledges that Gaussian, Inc. is engaged in the
 business of creating and licensing software in the field of
 computational chemistry and represents and warrants to the
 licensee that it is not a competitor of Gaussian, Inc. and that
 it will not use this program in any manner prohibited above.
 ---------------------------------------------------------------
  

 Cite this work as:
 Gaussian 16, Revision A.03,
 M. J. Frisch, G. W. Trucks, H. B. Schlegel, G. E. Scuseria, 
 M. A. Robb, J. R. Cheeseman, G. Scalmani, V. Barone, 
 G. A. Petersson, H. Nakatsuji, X. Li, M. Caricato, A. V. Marenich, 
 J. Bloino, B. G. Janesko, R. Gomperts, B. Mennucci, H. P. Hratchian, 
 J. V. Ortiz, A. F. Izmaylov, J. L. Sonnenberg, D. Williams-Young, 
 F. Ding, F. Lipparini, F. Egidi, J. Goings, B. Peng, A. Petrone, 
 T. Henderson, D. Ranasinghe, V. G. Zakrzewski, J. Gao, N. Rega, 
 G. Zheng, W. Liang, M. Hada, M. Ehara, K. Toyota, R. Fukuda, 
 J. Hasegawa, M. Ishida, T. Nakajima, Y. Honda, O. Kitao, H. Nakai, 
 T. Vreven, K. Throssell, J. A. Montgomery, Jr., J. E. Peralta, 
 F. Ogliaro, M. J. Bearpark, J. J. Heyd, E. N. Brothers, K. N. Kudin, 
 V. N. Staroverov, T. A. Keith, R. Kobayashi, J. Normand, 
 K. Raghavachari, A. P. Rendell, J. C. Burant, S. S. Iyengar, 
 J. Tomasi, M. Cossi, J. M. Millam, M. Klene, C. Adamo, R. Cammi, 
 J. W. Ochterski, R. L. Martin, K. Morokuma, O. Farkas, 
 J. B. Foresman, and D. J. Fox, Gaussian, Inc., Wallingford CT, 2016.
 
 ******************************************
 Gaussian 16:  EM64L-G16RevA.03 25-Dec-2016
                 8-Feb-2021 
 ******************************************
 %nproc=8
 Will use up to    8 processors via shared memory.
 %Mem=4GB
 ----------------------------------------------------------------------
 #t B3LYP/6-31G(d,p) scrf=(solvent=water) # Gfinput IOP(6/7=3) Pop=hirs
 hfeld Density Test # Units(Ang,Deg)
 ----------------------------------------------------------------------
 -------------------
 eti-2dp-opt-g09.log
 -------------------
 Symbolic Z-matrix:
 Charge = -2 Multiplicity = 1
 C                     0.03678   1.86311   0.81911 
 H                     0.05643   1.53009   1.85991 
 H                    -0.8391    2.49812   0.66358 
 C                     0.00782   0.66901  -0.13618 
 O                    -0.01905   1.18454  -1.48591 
 H                    -0.56995   0.52705  -1.95789 
 P                    -1.55686  -0.36208   0.02755 
 P                     1.54994  -0.37443   0.08434 
 O                    -1.90524  -0.75366  -1.40151 
 O                     1.52327  -1.53194  -0.89046 
 O                     2.72267   0.69693  -0.46658 
 O                    -2.71715   0.76191   0.46197 
 O                    -1.47189  -1.38812   1.13493 
 O                     1.8452   -0.59649   1.55655 
 H                     0.93711   2.45999   0.63867 
 H                     3.1742    1.03141   0.3207 
 H                    -2.745     0.82287   1.42718 
 
                    Distance matrix (angstroms):
                    1          2          3          4          5
     1  C    0.000000
     2  H    1.092956   0.000000
     3  H    1.092974   1.780523   0.000000
     4  C    1.529475   2.174442   2.168532   0.000000
     5  O    2.403475   3.364463   2.649204   1.445083   0.000000
     6  H    3.140845   3.996753   3.290845   1.916402   0.979055
     7  P    2.849162   3.088779   3.016696   1.881004   2.654704
     8  P    2.799308   3.001736   3.780817   1.874975   2.712527
     9  O    3.943359   4.438527   3.996914   2.699046   2.705819
    10  O    4.081501   4.369460   4.923131   2.776636   3.180028
    11  O    3.197965   3.635319   4.148223   2.735024   2.965439
    12  O    2.987360   3.199544   2.565569   2.791393   3.354489
    13  O    3.598100   3.373026   3.965533   2.834968   3.949446
    14  O    3.140674   2.795365   4.192788   2.800498   3.987989
    15  H    1.095180   1.769672   1.776794   2.161384   2.656098
    16  H    3.283830   3.512597   4.286652   3.219633   3.672075
    17  H    3.031526   2.921545   2.649906   3.169509   4.005958
                    6          7          8          9         10
     6  H    0.000000
     7  P    2.388831   0.000000
     8  P    3.078523   3.107344   0.000000
     9  O    1.932039   1.522142   3.780190   0.000000
    10  O    3.124167   3.420309   1.513531   3.552685   0.000000
    11  O    3.618592   4.436220   1.681256   4.939216   2.566339
    12  O    3.243663   1.672826   4.431922   2.535490   5.007192
    13  O    3.747920   1.512041   3.356004   2.650257   3.618546
    14  O    4.409828   3.737218   1.517858   4.779186   2.639425
    15  H    3.570660   3.815420   2.952419   4.750667   4.314780
    16  H    4.411917   4.940717   2.161128   5.652716   3.280738
    17  H    4.034483   2.185120   4.656528   3.345464   5.397658
                   11         12         13         14         15
    11  O    0.000000
    12  O    5.518883   0.000000
    13  O    4.950414   2.574136   0.000000
    14  O    2.556549   4.884505   3.436208   0.000000
    15  H    2.741930   4.033400   4.567002   3.318012   0.000000
    16  H    0.967247   5.899203   5.301250   2.437955   2.673297
    17  H    5.787711   0.967534   2.568014   4.806377   4.106074
                   16         17
    16  H    0.000000
    17  H    6.025339   0.000000
 Framework group  C1[X(C2H6O7P2)]
 Deg. of freedom    45
                         Standard orientation:                         
 ---------------------------------------------------------------------
 Center     Atomic      Atomic             Coordinates (Angstroms)
 Number     Number       Type             X           Y           Z
 ---------------------------------------------------------------------
      1          6           0       -0.036779    1.863110   -0.819110
      2          1           0       -0.056429    1.530090   -1.859910
      3          1           0        0.839102    2.498120   -0.663580
      4          6           0       -0.007820    0.669010    0.136180
      5          8           0        0.019051    1.184540    1.485910
      6          1           0        0.569950    0.527050    1.957890
      7         15           0        1.556859   -0.362081   -0.027550
      8         15           0       -1.549941   -0.374428   -0.084340
      9          8           0        1.905239   -0.753661    1.401510
     10          8           0       -1.523272   -1.531938    0.890460
     11          8           0       -2.722670    0.696933    0.466580
     12          8           0        2.717150    0.761908   -0.461970
     13          8           0        1.471889   -1.388121   -1.134930
     14          8           0       -1.845201   -0.596488   -1.556550
     15          1           0       -0.937108    2.459991   -0.638670
     16          1           0       -3.174199    1.031413   -0.320700
     17          1           0        2.745000    0.822868   -1.427180
 ---------------------------------------------------------------------
 Rotational constants (GHZ):           1.4081499           0.6709590           0.6430224
 AO basis set in the form of general basis input (Overlap normalization):
      1 0
 S   6 1.00       0.000000000000
      0.3047524880D+04  0.1834737132D-02
      0.4573695180D+03  0.1403732281D-01
      0.1039486850D+03  0.6884262226D-01
      0.2921015530D+02  0.2321844432D+00
      0.9286662960D+01  0.4679413484D+00
      0.3163926960D+01  0.3623119853D+00
 SP   3 1.00       0.000000000000
      0.7868272350D+01 -0.1193324198D+00  0.6899906659D-01
      0.1881288540D+01 -0.1608541517D+00  0.3164239610D+00
      0.5442492580D+00  0.1143456438D+01  0.7443082909D+00
 SP   1 1.00       0.000000000000
      0.1687144782D+00  0.1000000000D+01  0.1000000000D+01
 D   1 1.00       0.000000000000
      0.8000000000D+00  0.1000000000D+01
 ****
      2 0
 S   3 1.00       0.000000000000
      0.1873113696D+02  0.3349460434D-01
      0.2825394365D+01  0.2347269535D+00
      0.6401216923D+00  0.8137573261D+00
 S   1 1.00       0.000000000000
      0.1612777588D+00  0.1000000000D+01
 P   1 1.00       0.000000000000
      0.1100000000D+01  0.1000000000D+01
 ****
      3 0
 S   3 1.00       0.000000000000
      0.1873113696D+02  0.3349460434D-01
      0.2825394365D+01  0.2347269535D+00
      0.6401216923D+00  0.8137573261D+00
 S   1 1.00       0.000000000000
      0.1612777588D+00  0.1000000000D+01
 P   1 1.00       0.000000000000
      0.1100000000D+01  0.1000000000D+01
 ****
      4 0
 S   6 1.00       0.000000000000
      0.3047524880D+04  0.1834737132D-02
      0.4573695180D+03  0.1403732281D-01
      0.1039486850D+03  0.6884262226D-01
      0.2921015530D+02  0.2321844432D+00
      0.9286662960D+01  0.4679413484D+00
      0.3163926960D+01  0.3623119853D+00
 SP   3 1.00       0.000000000000
      0.7868272350D+01 -0.1193324198D+00  0.6899906659D-01
      0.1881288540D+01 -0.1608541517D+00  0.3164239610D+00
      0.5442492580D+00  0.1143456438D+01  0.7443082909D+00
 SP   1 1.00       0.000000000000
      0.1687144782D+00  0.1000000000D+01  0.1000000000D+01
 D   1 1.00       0.000000000000
      0.8000000000D+00  0.1000000000D+01
 ****
      5 0
 S   6 1.00       0.000000000000
      0.5484671660D+04  0.1831074430D-02
      0.8252349460D+03  0.1395017220D-01
      0.1880469580D+03  0.6844507810D-01
      0.5296450000D+02  0.2327143360D+00
      0.1689757040D+02  0.4701928980D+00
      0.5799635340D+01  0.3585208530D+00
 SP   3 1.00       0.000000000000
      0.1553961625D+02 -0.1107775495D+00  0.7087426823D-01
      0.3599933586D+01 -0.1480262627D+00  0.3397528391D+00
      0.1013761750D+01  0.1130767015D+01  0.7271585773D+00
 SP   1 1.00       0.000000000000
      0.2700058226D+00  0.1000000000D+01  0.1000000000D+01
 D   1 1.00       0.000000000000
      0.8000000000D+00  0.1000000000D+01
 ****
      6 0
 S   3 1.00       0.000000000000
      0.1873113696D+02  0.3349460434D-01
      0.2825394365D+01  0.2347269535D+00
      0.6401216923D+00  0.8137573261D+00
 S   1 1.00       0.000000000000
      0.1612777588D+00  0.1000000000D+01
 P   1 1.00       0.000000000000
      0.1100000000D+01  0.1000000000D+01
 ****
      7 0
 S   6 1.00       0.000000000000
      0.1941330000D+05  0.1851598923D-02
      0.2909420000D+04  0.1420619174D-01
      0.6613640000D+03  0.6999945928D-01
      0.1857590000D+03  0.2400788603D+00
      0.5919430000D+02  0.4847617180D+00
      0.2003100000D+02  0.3351998050D+00
 SP   6 1.00       0.000000000000
      0.3394780000D+03 -0.2782170105D-02  0.4564616191D-02
      0.8101010000D+02 -0.3604990135D-01  0.3369357188D-01
      0.2587800000D+02 -0.1166310044D+00  0.1397548834D+00
      0.9452210000D+01  0.9683280364D-01  0.3393617168D+00
      0.3665660000D+01  0.6144180231D+00  0.4509206237D+00
      0.1467460000D+01  0.4037980152D+00  0.2385858009D+00
 SP   3 1.00       0.000000000000
      0.2156230000D+01 -0.2529241139D+00 -0.1776531273D-01
      0.7489970000D+00  0.3285184468D-01  0.2740581964D+00
      0.2831450000D+00  0.1081254762D+01  0.7854215630D+00
 SP   1 1.00       0.000000000000
      0.9983170000D-01  0.1000000000D+01  0.1000000000D+01
 D   1 1.00       0.000000000000
      0.5500000000D+00  0.1000000000D+01
 ****
      8 0
 S   6 1.00       0.000000000000
      0.1941330000D+05  0.1851598923D-02
      0.2909420000D+04  0.1420619174D-01
      0.6613640000D+03  0.6999945928D-01
      0.1857590000D+03  0.2400788603D+00
      0.5919430000D+02  0.4847617180D+00
      0.2003100000D+02  0.3351998050D+00
 SP   6 1.00       0.000000000000
      0.3394780000D+03 -0.2782170105D-02  0.4564616191D-02
      0.8101010000D+02 -0.3604990135D-01  0.3369357188D-01
      0.2587800000D+02 -0.1166310044D+00  0.1397548834D+00
      0.9452210000D+01  0.9683280364D-01  0.3393617168D+00
      0.3665660000D+01  0.6144180231D+00  0.4509206237D+00
      0.1467460000D+01  0.4037980152D+00  0.2385858009D+00
 SP   3 1.00       0.000000000000
      0.2156230000D+01 -0.2529241139D+00 -0.1776531273D-01
      0.7489970000D+00  0.3285184468D-01  0.2740581964D+00
      0.2831450000D+00  0.1081254762D+01  0.7854215630D+00
 SP   1 1.00       0.000000000000
      0.9983170000D-01  0.1000000000D+01  0.1000000000D+01
 D   1 1.00       0.000000000000
      0.5500000000D+00  0.1000000000D+01
 ****
      9 0
 S   6 1.00       0.000000000000
      0.5484671660D+04  0.1831074430D-02
      0.8252349460D+03  0.1395017220D-01
      0.1880469580D+03  0.6844507810D-01
      0.5296450000D+02  0.2327143360D+00
      0.1689757040D+02  0.4701928980D+00
      0.5799635340D+01  0.3585208530D+00
 SP   3 1.00       0.000000000000
      0.1553961625D+02 -0.1107775495D+00  0.7087426823D-01
      0.3599933586D+01 -0.1480262627D+00  0.3397528391D+00
      0.1013761750D+01  0.1130767015D+01  0.7271585773D+00
 SP   1 1.00       0.000000000000
      0.2700058226D+00  0.1000000000D+01  0.1000000000D+01
 D   1 1.00       0.000000000000
      0.8000000000D+00  0.1000000000D+01
 ****
     10 0
 S   6 1.00       0.000000000000
      0.5484671660D+04  0.1831074430D-02
      0.8252349460D+03  0.1395017220D-01
      0.1880469580D+03  0.6844507810D-01
      0.5296450000D+02  0.2327143360D+00
      0.1689757040D+02  0.4701928980D+00
      0.5799635340D+01  0.3585208530D+00
 SP   3 1.00       0.000000000000
      0.1553961625D+02 -0.1107775495D+00  0.7087426823D-01
      0.3599933586D+01 -0.1480262627D+00  0.3397528391D+00
      0.1013761750D+01  0.1130767015D+01  0.7271585773D+00
 SP   1 1.00       0.000000000000
      0.2700058226D+00  0.1000000000D+01  0.1000000000D+01
 D   1 1.00       0.000000000000
      0.8000000000D+00  0.1000000000D+01
 ****
     11 0
 S   6 1.00       0.000000000000
      0.5484671660D+04  0.1831074430D-02
      0.8252349460D+03  0.1395017220D-01
      0.1880469580D+03  0.6844507810D-01
      0.5296450000D+02  0.2327143360D+00
      0.1689757040D+02  0.4701928980D+00
      0.5799635340D+01  0.3585208530D+00
 SP   3 1.00       0.000000000000
      0.1553961625D+02 -0.1107775495D+00  0.7087426823D-01
      0.3599933586D+01 -0.1480262627D+00  0.3397528391D+00
      0.1013761750D+01  0.1130767015D+01  0.7271585773D+00
 SP   1 1.00       0.000000000000
      0.2700058226D+00  0.1000000000D+01  0.1000000000D+01
 D   1 1.00       0.000000000000
      0.8000000000D+00  0.1000000000D+01
 ****
     12 0
 S   6 1.00       0.000000000000
      0.5484671660D+04  0.1831074430D-02
      0.8252349460D+03  0.1395017220D-01
      0.1880469580D+03  0.6844507810D-01
      0.5296450000D+02  0.2327143360D+00
      0.1689757040D+02  0.4701928980D+00
      0.5799635340D+01  0.3585208530D+00
 SP   3 1.00       0.000000000000
      0.1553961625D+02 -0.1107775495D+00  0.7087426823D-01
      0.3599933586D+01 -0.1480262627D+00  0.3397528391D+00
      0.1013761750D+01  0.1130767015D+01  0.7271585773D+00
 SP   1 1.00       0.000000000000
      0.2700058226D+00  0.1000000000D+01  0.1000000000D+01
 D   1 1.00       0.000000000000
      0.8000000000D+00  0.1000000000D+01
 ****
     13 0
 S   6 1.00       0.000000000000
      0.5484671660D+04  0.1831074430D-02
      0.8252349460D+03  0.1395017220D-01
      0.1880469580D+03  0.6844507810D-01
      0.5296450000D+02  0.2327143360D+00
      0.1689757040D+02  0.4701928980D+00
      0.5799635340D+01  0.3585208530D+00
 SP   3 1.00       0.000000000000
      0.1553961625D+02 -0.1107775495D+00  0.7087426823D-01
      0.3599933586D+01 -0.1480262627D+00  0.3397528391D+00
      0.1013761750D+01  0.1130767015D+01  0.7271585773D+00
 SP   1 1.00       0.000000000000
      0.2700058226D+00  0.1000000000D+01  0.1000000000D+01
 D   1 1.00       0.000000000000
      0.8000000000D+00  0.1000000000D+01
 ****
     14 0
 S   6 1.00       0.000000000000
      0.5484671660D+04  0.1831074430D-02
      0.8252349460D+03  0.1395017220D-01
      0.1880469580D+03  0.6844507810D-01
      0.5296450000D+02  0.2327143360D+00
      0.1689757040D+02  0.4701928980D+00
      0.5799635340D+01  0.3585208530D+00
 SP   3 1.00       0.000000000000
      0.1553961625D+02 -0.1107775495D+00  0.7087426823D-01
      0.3599933586D+01 -0.1480262627D+00  0.3397528391D+00
      0.1013761750D+01  0.1130767015D+01  0.7271585773D+00
 SP   1 1.00       0.000000000000
      0.2700058226D+00  0.1000000000D+01  0.1000000000D+01
 D   1 1.00       0.000000000000
      0.8000000000D+00  0.1000000000D+01
 ****
     15 0
 S   3 1.00       0.000000000000
      0.1873113696D+02  0.3349460434D-01
      0.2825394365D+01  0.2347269535D+00
      0.6401216923D+00  0.8137573261D+00
 S   1 1.00       0.000000000000
      0.1612777588D+00  0.1000000000D+01
 P   1 1.00       0.000000000000
      0.1100000000D+01  0.1000000000D+01
 ****
     16 0
 S   3 1.00       0.000000000000
      0.1873113696D+02  0.3349460434D-01
      0.2825394365D+01  0.2347269535D+00
      0.6401216923D+00  0.8137573261D+00
 S   1 1.00       0.000000000000
      0.1612777588D+00  0.1000000000D+01
 P   1 1.00       0.000000000000
      0.1100000000D+01  0.1000000000D+01
 ****
     17 0
 S   3 1.00       0.000000000000
      0.1873113696D+02  0.3349460434D-01
      0.2825394365D+01  0.2347269535D+00
      0.6401216923D+00  0.8137573261D+00
 S   1 1.00       0.000000000000
      0.1612777588D+00  0.1000000000D+01
 P   1 1.00       0.000000000000
      0.1100000000D+01  0.1000000000D+01
 ****

   203 basis functions,   398 primitive gaussians,   203 cartesian basis functions
    53 alpha electrons       53 beta electrons
       nuclear repulsion energy       975.3995560417 Hartrees.
 NAtoms=   17 NActive=   17 NUniq=   17 SFac= 1.00D+00 NAtFMM=   60 NAOKFM=F Big=F
 ------------------------------------------------------------------------------
 Polarizable Continuum Model (PCM)
 =================================
 Model                : PCM.
 Atomic radii         : UFF (Universal Force Field).
 Polarization charges : Total charges.
 Charge compensation  : None.
 Solution method      : On-the-fly selection.
 Cavity type          : Scaled VdW (van der Waals Surface) (Alpha=1.100).
 Cavity algorithm     : GePol (No added spheres)
                        Default sphere list used, NSphG=   17.
                        Lebedev-Laikov grids with approx.  5.0 points / Ang**2.
                        Smoothing algorithm: York/Karplus (Gamma=1.0000).
                        Polarization charges: spherical gaussians, with
                                              point-specific exponents (IZeta= 3).
                        Self-potential: point-specific (ISelfS= 7).
                        Self-field    : sphere-specific E.n sum rule (ISelfD= 2).
 Solvent              : Water, Eps=  78.355300 Eps(inf)=   1.777849
 ------------------------------------------------------------------------------
 Spheres list:
 ISph  on   Nord     Re0    Alpha      Xe            Ye            Ze
    1   C      1    1.9255  1.100     -0.036779      1.863110     -0.819110
    2   H      2    1.4430  1.100     -0.056429      1.530090     -1.859910
    3   H      3    1.4430  1.100      0.839102      2.498120     -0.663580
    4   C      4    1.9255  1.100     -0.007820      0.669010      0.136180
    5   O      5    1.7500  1.100      0.019051      1.184540      1.485910
    6   H      6    1.4430  1.100      0.569950      0.527050      1.957890
    7   P      7    2.0735  1.100      1.556859     -0.362081     -0.027550
    8   P      8    2.0735  1.100     -1.549941     -0.374428     -0.084340
    9   O      9    1.7500  1.100      1.905239     -0.753661      1.401510
   10   O     10    1.7500  1.100     -1.523272     -1.531938      0.890460
   11   O     11    1.7500  1.100     -2.722670      0.696933      0.466580
   12   O     12    1.7500  1.100      2.717150      0.761908     -0.461970
   13   O     13    1.7500  1.100      1.471889     -1.388121     -1.134930
   14   O     14    1.7500  1.100     -1.845201     -0.596488     -1.556550
   15   H     15    1.4430  1.100     -0.937108      2.459991     -0.638670
   16   H     16    1.4430  1.100     -3.174199      1.031413     -0.320700
   17   H     17    1.4430  1.100      2.745000      0.822868     -1.427180
 ------------------------------------------------------------------------------
 ExpMin= 9.98D-02 ExpMax= 1.94D+04 ExpMxC= 2.91D+03 IAcc=3 IRadAn=         5 AccDes= 0.00D+00
 Harris functional with IExCor=  402 and IRadAn=       5 diagonalized for initial guess.
 HarFok:  IExCor=  402 AccDes= 0.00D+00 IRadAn=         5 IDoV= 1 UseB2=F ITyADJ=14
 ICtDFT=  3500011 ScaDFX=  1.000000  1.000000  1.000000  1.000000
 FoFCou: FMM=F IPFlag=           0 FMFlag=      100000 FMFlg1=           0
         NFxFlg=           0 DoJE=T BraDBF=F KetDBF=T FulRan=T
         wScrn=  0.000000 ICntrl=       500 IOpCl=  0 I1Cent=   200000004 NGrid=           0
         NMat0=    1 NMatS0=      1 NMatT0=    0 NMatD0=    1 NMtDS0=    0 NMtDT0=    0
 Petite list used in FoFCou.
 Inv3:  Mode=1 IEnd=     7921875.
 Iteration    1 A*A^-1 deviation from unit magnitude is 6.33D-15 for     25.
 Iteration    1 A*A^-1 deviation from orthogonality  is 2.85D-15 for   1439    312.
 Iteration    1 A^-1*A deviation from unit magnitude is 5.88D-15 for    900.
 Iteration    1 A^-1*A deviation from orthogonality  is 2.50D-15 for   1500    176.
 Error on total polarization charges =  0.00632
 SCF Done:  E(RB3LYP) =  -1289.54206669     A.U. after   13 cycles
            NFock= 13  Conv=0.39D-08     -V/T= 2.0062

 **********************************************************************

            Population analysis using the SCF density.

 **********************************************************************

 Orbital symmetries:
       Occupied  (A) (A) (A) (A) (A) (A) (A) (A) (A) (A) (A) (A)
                 (A) (A) (A) (A) (A) (A) (A) (A) (A) (A) (A) (A)
                 (A) (A) (A) (A) (A) (A) (A) (A) (A) (A) (A) (A)
                 (A) (A) (A) (A) (A) (A) (A) (A) (A) (A) (A) (A)
                 (A) (A) (A) (A) (A)
       Virtual   (A) (A) (A) (A) (A) (A) (A) (A) (A) (A) (A) (A)
                 (A) (A) (A) (A) (A) (A) (A) (A) (A) (A) (A) (A)
                 (A) (A) (A) (A) (A) (A) (A) (A) (A) (A) (A) (A)
                 (A) (A) (A) (A) (A) (A) (A) (A) (A) (A) (A) (A)
                 (A) (A) (A) (A) (A) (A) (A) (A) (A) (A) (A) (A)
                 (A) (A) (A) (A) (A) (A) (A) (A) (A) (A) (A) (A)
                 (A) (A) (A) (A) (A) (A) (A) (A) (A) (A) (A) (A)
                 (A) (A) (A) (A) (A) (A) (A) (A) (A) (A) (A) (A)
                 (A) (A) (A) (A) (A) (A) (A) (A) (A) (A) (A) (A)
                 (A) (A) (A) (A) (A) (A) (A) (A) (A) (A) (A) (A)
                 (A) (A) (A) (A) (A) (A) (A) (A) (A) (A) (A) (A)
                 (A) (A) (A) (A) (A) (A) (A) (A) (A) (A) (A) (A)
                 (A) (A) (A) (A) (A) (A)
 The electronic state is 1-A.
 Alpha  occ. eigenvalues --  -77.14829 -77.13735 -19.13388 -19.12246 -19.11659
 Alpha  occ. eigenvalues --  -19.06307 -19.06082 -19.04986 -19.04984 -10.20557
 Alpha  occ. eigenvalues --  -10.16099  -6.59713  -6.58598  -4.76209  -4.75920
 Alpha  occ. eigenvalues --   -4.75896  -4.75108  -4.74797  -4.74779  -1.00735
 Alpha  occ. eigenvalues --   -0.99489  -0.98148  -0.92335  -0.91253  -0.88611
 Alpha  occ. eigenvalues --   -0.87387  -0.72643  -0.59825  -0.54688  -0.51035
 Alpha  occ. eigenvalues --   -0.48889  -0.44710  -0.41500  -0.40382  -0.39810
 Alpha  occ. eigenvalues --   -0.37467  -0.36871  -0.36696  -0.35086  -0.33669
 Alpha  occ. eigenvalues --   -0.33183  -0.32276  -0.29485  -0.29106  -0.27260
 Alpha  occ. eigenvalues --   -0.27141  -0.25497  -0.24425  -0.23884  -0.23258
 Alpha  occ. eigenvalues --   -0.22877  -0.21905  -0.20468
 Alpha virt. eigenvalues --    0.08248   0.10805   0.11849   0.12626   0.16238
 Alpha virt. eigenvalues --    0.16871   0.17804   0.17984   0.18965   0.21054
 Alpha virt. eigenvalues --    0.21462   0.22694   0.23930   0.26299   0.27407
 Alpha virt. eigenvalues --    0.29592   0.35871   0.36977   0.41138   0.41586
 Alpha virt. eigenvalues --    0.44654   0.44746   0.48286   0.50736   0.57761
 Alpha virt. eigenvalues --    0.60010   0.60752   0.66461   0.67319   0.68901
 Alpha virt. eigenvalues --    0.73325   0.77819   0.78569   0.80179   0.81436
 Alpha virt. eigenvalues --    0.82940   0.85639   0.85926   0.87001   0.89941
 Alpha virt. eigenvalues --    0.91996   0.92555   0.93277   0.94265   0.95214
 Alpha virt. eigenvalues --    0.96630   0.99212   1.01594   1.03428   1.03758
 Alpha virt. eigenvalues --    1.05618   1.05901   1.06827   1.07824   1.08836
 Alpha virt. eigenvalues --    1.09415   1.11190   1.12566   1.13556   1.17385
 Alpha virt. eigenvalues --    1.18931   1.21367   1.22918   1.23991   1.25789
 Alpha virt. eigenvalues --    1.26326   1.29449   1.34983   1.37313   1.43432
 Alpha virt. eigenvalues --    1.44512   1.47099   1.50055   1.52379   1.56235
 Alpha virt. eigenvalues --    1.60521   1.61285   1.65126   1.66397   1.70501
 Alpha virt. eigenvalues --    1.72199   1.72747   1.77650   1.82018   1.84238
 Alpha virt. eigenvalues --    1.85729   1.86164   1.87806   1.88136   1.89498
 Alpha virt. eigenvalues --    1.90296   1.90837   1.92310   1.94314   1.95191
 Alpha virt. eigenvalues --    1.97332   2.02053   2.03930   2.05431   2.06946
 Alpha virt. eigenvalues --    2.07828   2.09675   2.12988   2.13205   2.15617
 Alpha virt. eigenvalues --    2.18020   2.19686   2.22692   2.28964   2.30952
 Alpha virt. eigenvalues --    2.35364   2.38148   2.41453   2.45389   2.46606
 Alpha virt. eigenvalues --    2.51199   2.52459   2.54789   2.56130   2.66297
 Alpha virt. eigenvalues --    2.66931   2.69873   2.73409   2.74190   2.76301
 Alpha virt. eigenvalues --    2.80411   2.82108   2.85144   2.87377   2.88360
 Alpha virt. eigenvalues --    2.89962   2.95971   3.03533   3.23519   3.39860
 Alpha virt. eigenvalues --    3.41334   3.46103   3.47105   3.51297   3.55905
 Alpha virt. eigenvalues --    3.60817   3.85070   3.88844   3.93701   3.98315
 Alpha virt. eigenvalues --    4.04435   4.13798   4.24452   4.41340   4.60534
     Molecular Orbital Coefficients:
                           1         2         3         4         5
                           O         O         O         O         O
     Eigenvalues --   -77.14829 -77.13735 -19.13388 -19.12246 -19.11659
   1 1   C  1S         -0.00001  -0.00001   0.00001  -0.00003   0.00000
   2        2S          0.00000  -0.00002  -0.00001  -0.00017   0.00008
   3        2PX        -0.00001   0.00001   0.00002   0.00001   0.00002
   4        2PY         0.00003   0.00003  -0.00001   0.00001   0.00002
   5        2PZ        -0.00002  -0.00001   0.00002   0.00003   0.00009
   6        3S         -0.00006   0.00003  -0.00000   0.00105   0.00025
   7        3PX        -0.00011   0.00005   0.00006  -0.00023  -0.00009
   8        3PY         0.00016   0.00016   0.00008  -0.00046  -0.00028
   9        3PZ        -0.00011  -0.00012   0.00003   0.00021  -0.00033
  10        4XX        -0.00002  -0.00001   0.00006  -0.00003   0.00002
  11        4YY        -0.00005  -0.00004   0.00003  -0.00003   0.00000
  12        4ZZ        -0.00003  -0.00003   0.00001  -0.00002  -0.00007
  13        4XY         0.00001  -0.00000  -0.00001   0.00001  -0.00000
  14        4XZ        -0.00002   0.00002  -0.00000  -0.00001  -0.00000
  15        4YZ         0.00001   0.00001   0.00000  -0.00003   0.00000
  16 2   H  1S          0.00001   0.00002  -0.00003  -0.00007  -0.00004
  17        2S         -0.00013  -0.00020   0.00017  -0.00004  -0.00029
  18        3PX        -0.00001   0.00002   0.00002   0.00001   0.00001
  19        3PY         0.00002   0.00002  -0.00001   0.00002   0.00002
  20        3PZ        -0.00001  -0.00002   0.00002  -0.00000  -0.00001
  21 3   H  1S          0.00002  -0.00001   0.00005  -0.00001   0.00007
  22        2S         -0.00013  -0.00003  -0.00013   0.00013   0.00010
  23        3PX        -0.00001   0.00000   0.00002  -0.00001   0.00000
  24        3PY         0.00003  -0.00001   0.00001  -0.00000  -0.00000
  25        3PZ        -0.00001   0.00001   0.00001  -0.00000   0.00005
  26 4   C  1S         -0.00004  -0.00004  -0.00002  -0.00000  -0.00002
  27        2S         -0.00007  -0.00004  -0.00012  -0.00004   0.00005
  28        2PX         0.00005  -0.00005   0.00002  -0.00008   0.00001
  29        2PY        -0.00001  -0.00001  -0.00001   0.00005   0.00016
  30        2PZ         0.00000  -0.00001  -0.00006  -0.00004   0.00027
  31        3S          0.00108   0.00095   0.00076   0.00029  -0.00088
  32        3PX         0.00037  -0.00034   0.00031  -0.00011  -0.00018
  33        3PY        -0.00016  -0.00020  -0.00022  -0.00083  -0.00063
  34        3PZ         0.00001   0.00004  -0.00005   0.00033  -0.00076
  35        4XX        -0.00012  -0.00012   0.00004   0.00006   0.00003
  36        4YY        -0.00010  -0.00010  -0.00002  -0.00000   0.00006
  37        4ZZ        -0.00007  -0.00007  -0.00003  -0.00002   0.00022
  38        4XY         0.00004  -0.00004  -0.00002   0.00003   0.00001
  39        4XZ         0.00000  -0.00001  -0.00000  -0.00001  -0.00001
  40        4YZ        -0.00000  -0.00001  -0.00002   0.00002   0.00013
  41 5   O  1S          0.00000   0.00000   0.00001  -0.00012   0.99276
  42        2S         -0.00000   0.00002  -0.00015  -0.00011   0.02585
  43        2PX        -0.00001  -0.00000  -0.00005   0.00002   0.00045
  44        2PY         0.00001   0.00001   0.00001   0.00003  -0.00078
  45        2PZ         0.00001   0.00001   0.00005   0.00000  -0.00021
  46        3S         -0.00018  -0.00022   0.00049   0.00039   0.01206
  47        3PX        -0.00001   0.00012   0.00018  -0.00018   0.00004
  48        3PY         0.00002   0.00004  -0.00002  -0.00006  -0.00031
  49        3PZ         0.00015   0.00010  -0.00024  -0.00007  -0.00030
  50        4XX         0.00001   0.00000  -0.00009  -0.00003  -0.00802
  51        4YY        -0.00001  -0.00001  -0.00014  -0.00005  -0.00802
  52        4ZZ        -0.00000  -0.00000  -0.00011  -0.00006  -0.00811
  53        4XY        -0.00004   0.00002  -0.00002   0.00003  -0.00005
  54        4XZ         0.00001  -0.00001  -0.00003   0.00002   0.00004
  55        4YZ        -0.00000   0.00000   0.00002  -0.00003  -0.00009
  56 6   H  1S         -0.00002   0.00001  -0.00007  -0.00009   0.00025
  57        2S         -0.00022  -0.00014   0.00040   0.00015  -0.00156
  58        3PX         0.00002   0.00002  -0.00001   0.00001   0.00010
  59        3PY        -0.00001   0.00001   0.00002   0.00002  -0.00010
  60        3PZ        -0.00001   0.00003  -0.00002   0.00001   0.00015
  61 7   P  1S          0.99625   0.00015   0.00001   0.00000   0.00000
  62        2S          0.01417   0.00000   0.00000   0.00001   0.00001
  63        2PX         0.00000  -0.00001  -0.00004  -0.00001  -0.00000
  64        2PY         0.00003   0.00001  -0.00006   0.00000   0.00000
  65        2PZ        -0.00001  -0.00000   0.00001   0.00001  -0.00000
  66        3S         -0.02720   0.00013   0.00006   0.00004   0.00015
  67        3PX         0.00011   0.00009  -0.00001   0.00005  -0.00004
  68        3PY        -0.00012  -0.00005   0.00014  -0.00001   0.00000
  69        3PZ        -0.00000   0.00002   0.00001  -0.00002   0.00007
  70        4S          0.00283  -0.00023  -0.00267  -0.00035  -0.00006
  71        4PX        -0.00029   0.00014  -0.00082   0.00015  -0.00007
  72        4PY         0.00000   0.00009  -0.00156   0.00002  -0.00028
  73        4PZ        -0.00008   0.00004  -0.00080   0.00018   0.00028
  74        5XX         0.00941  -0.00011   0.00016  -0.00005  -0.00003
  75        5YY         0.00944  -0.00003   0.00019   0.00001  -0.00002
  76        5ZZ         0.00945  -0.00003  -0.00003  -0.00001  -0.00002
  77        5XY         0.00002   0.00001   0.00015   0.00001  -0.00003
  78        5XZ         0.00003   0.00002  -0.00011   0.00003   0.00003
  79        5YZ         0.00001  -0.00000  -0.00005  -0.00002  -0.00003
  80 8   P  1S         -0.00015   0.99625   0.00000   0.00001   0.00000
  81        2S          0.00000   0.01417   0.00001   0.00002   0.00006
  82        2PX         0.00001  -0.00000  -0.00000   0.00004  -0.00000
  83        2PY         0.00001   0.00003  -0.00000  -0.00006  -0.00001
  84        2PZ         0.00000   0.00001   0.00000  -0.00003   0.00000
  85        3S          0.00016  -0.02719   0.00007   0.00012   0.00033
  86        3PX        -0.00008  -0.00010   0.00003   0.00008   0.00008
  87        3PY        -0.00006  -0.00012   0.00002   0.00023   0.00016
  88        3PZ        -0.00003  -0.00002  -0.00001   0.00006  -0.00001
  89        4S         -0.00028   0.00292  -0.00039  -0.00309  -0.00140
  90        4PX        -0.00016   0.00027  -0.00034   0.00033  -0.00029
  91        4PY         0.00007   0.00012   0.00025  -0.00121  -0.00052
  92        4PZ         0.00005  -0.00016  -0.00004  -0.00119  -0.00043
  93        5XX        -0.00011   0.00940  -0.00001   0.00018  -0.00000
  94        5YY        -0.00002   0.00943   0.00001   0.00018   0.00003
  95        5ZZ        -0.00003   0.00947  -0.00000  -0.00000  -0.00003
  96        5XY        -0.00002  -0.00002  -0.00001  -0.00012   0.00002
  97        5XZ        -0.00000  -0.00001  -0.00000  -0.00008   0.00000
  98        5YZ        -0.00001  -0.00000   0.00001   0.00013   0.00001
  99 9   O  1S          0.00000   0.00001  -0.00004   0.00000  -0.00001
 100        2S         -0.00007   0.00002  -0.00024   0.00004  -0.00000
 101        2PX         0.00003  -0.00001  -0.00003  -0.00000   0.00001
 102        2PY        -0.00005   0.00000  -0.00002   0.00002  -0.00001
 103        2PZ         0.00016  -0.00001  -0.00002   0.00000  -0.00004
 104        3S          0.00067  -0.00008   0.00149  -0.00016  -0.00000
 105        3PX        -0.00004   0.00002   0.00009   0.00001  -0.00009
 106        3PY         0.00013  -0.00002   0.00027  -0.00007   0.00012
 107        3PZ        -0.00039   0.00005  -0.00020  -0.00000   0.00022
 108        4XX         0.00001   0.00002  -0.00017   0.00003   0.00002
 109        4YY         0.00001   0.00004  -0.00015   0.00003   0.00001
 110        4ZZ        -0.00020   0.00002  -0.00016   0.00003  -0.00002
 111        4XY         0.00001  -0.00000  -0.00004   0.00001  -0.00001
 112        4XZ        -0.00008  -0.00001   0.00002   0.00000  -0.00003
 113        4YZ         0.00008   0.00001   0.00001   0.00000   0.00002
 114 10  O  1S          0.00001   0.00001  -0.00001  -0.00004  -0.00003
 115        2S          0.00003  -0.00005  -0.00007  -0.00021  -0.00016
 116        2PX         0.00002   0.00002  -0.00000  -0.00001  -0.00001
 117        2PY         0.00001  -0.00013  -0.00000  -0.00002  -0.00004
 118        2PZ         0.00001   0.00012   0.00001  -0.00005  -0.00002
 119        3S         -0.00009   0.00060   0.00039   0.00127   0.00077
 120        3PX        -0.00006  -0.00008   0.00003  -0.00001   0.00006
 121        3PY        -0.00004   0.00031   0.00004   0.00040   0.00029
 122        3PZ        -0.00001  -0.00027  -0.00007   0.00007   0.00002
 123        4XX         0.00001   0.00004  -0.00006  -0.00016  -0.00012
 124        4YY         0.00003  -0.00011  -0.00005  -0.00012  -0.00008
 125        4ZZ         0.00003  -0.00007  -0.00004  -0.00015  -0.00014
 126        4XY        -0.00001  -0.00001   0.00001   0.00005   0.00001
 127        4XZ         0.00000   0.00000   0.00000   0.00002  -0.00000
 128        4YZ         0.00001   0.00015  -0.00000  -0.00001  -0.00000
 129 11  O  1S         -0.00000  -0.00002   0.00000   0.99273   0.00007
 130        2S         -0.00001  -0.00005   0.00001   0.02582  -0.00014
 131        2PX        -0.00001  -0.00001  -0.00001  -0.00009  -0.00000
 132        2PY        -0.00000   0.00004  -0.00001   0.00000   0.00002
 133        2PZ         0.00000   0.00003  -0.00000  -0.00092   0.00001
 134        3S          0.00003   0.00081  -0.00006   0.01227   0.00068
 135        3PX         0.00004   0.00012   0.00002   0.00055   0.00015
 136        3PY         0.00001  -0.00024   0.00003  -0.00034  -0.00008
 137        3PZ        -0.00001  -0.00026   0.00001   0.00005  -0.00004
 138        4XX        -0.00001  -0.00015   0.00001  -0.00810  -0.00005
 139        4YY        -0.00001  -0.00012   0.00000  -0.00813  -0.00007
 140        4ZZ        -0.00001  -0.00003  -0.00000  -0.00809  -0.00005
 141        4XY        -0.00000   0.00008  -0.00000  -0.00000  -0.00001
 142        4XZ        -0.00000   0.00010   0.00000   0.00004   0.00001
 143        4YZ         0.00000  -0.00008  -0.00000  -0.00004  -0.00003
 144 12  O  1S         -0.00002  -0.00000   0.99273  -0.00000  -0.00007
 145        2S         -0.00008  -0.00001   0.02583  -0.00002  -0.00010
 146        2PX         0.00004   0.00001  -0.00034   0.00001   0.00003
 147        2PY         0.00004  -0.00000  -0.00030   0.00000   0.00000
 148        2PZ         0.00001   0.00000  -0.00082   0.00000  -0.00000
 149        3S          0.00091  -0.00000   0.01225   0.00007   0.00041
 150        3PX        -0.00024  -0.00004  -0.00038  -0.00006  -0.00015
 151        3PY        -0.00029  -0.00000  -0.00021  -0.00002  -0.00004
 152        3PZ        -0.00007  -0.00001   0.00047  -0.00000   0.00006
 153        4XX        -0.00018   0.00000  -0.00814  -0.00001  -0.00006
 154        4YY        -0.00016  -0.00000  -0.00816  -0.00001  -0.00008
 155        4ZZ        -0.00001  -0.00001  -0.00809  -0.00002  -0.00009
 156        4XY        -0.00011   0.00001  -0.00003   0.00000   0.00000
 157        4XZ         0.00004   0.00000  -0.00002   0.00000  -0.00001
 158        4YZ         0.00003   0.00000  -0.00001   0.00000   0.00001
 159 13  O  1S          0.00002   0.00000  -0.00001  -0.00001   0.00000
 160        2S         -0.00002   0.00001   0.00008  -0.00004   0.00001
 161        2PX        -0.00002  -0.00002  -0.00001  -0.00001  -0.00000
 162        2PY        -0.00011   0.00000  -0.00001  -0.00001  -0.00001
 163        2PZ        -0.00013  -0.00001   0.00002  -0.00000   0.00002
 164        3S          0.00039  -0.00000  -0.00036   0.00024  -0.00002
 165        3PX         0.00008   0.00007   0.00011   0.00003   0.00002
 166        3PY         0.00025  -0.00001   0.00015   0.00006   0.00006
 167        3PZ         0.00030   0.00002  -0.00002   0.00003  -0.00007
 168        4XX         0.00007  -0.00001   0.00006  -0.00004   0.00001
 169        4YY        -0.00005   0.00002   0.00007  -0.00002   0.00002
 170        4ZZ        -0.00007   0.00002   0.00008  -0.00003   0.00000
 171        4XY        -0.00000   0.00001  -0.00003   0.00000   0.00001
 172        4XZ        -0.00000   0.00000   0.00002  -0.00000   0.00000
 173        4YZ        -0.00015  -0.00000   0.00002  -0.00000   0.00000
 174 14  O  1S          0.00000   0.00002  -0.00000  -0.00003  -0.00000
 175        2S          0.00001   0.00000  -0.00001  -0.00004   0.00000
 176        2PX         0.00002  -0.00002  -0.00000   0.00003  -0.00000
 177        2PY         0.00000  -0.00002   0.00001  -0.00004  -0.00002
 178        2PZ         0.00001  -0.00017  -0.00001   0.00001   0.00000
 179        3S         -0.00002   0.00031   0.00008   0.00029   0.00001
 180        3PX        -0.00004  -0.00001   0.00004  -0.00009   0.00002
 181        3PY        -0.00001   0.00003  -0.00006   0.00025   0.00008
 182        3PZ        -0.00002   0.00039   0.00003   0.00019   0.00003
 183        4XX         0.00001   0.00007  -0.00001  -0.00003   0.00001
 184        4YY         0.00003   0.00008  -0.00000  -0.00002   0.00002
 185        4ZZ         0.00001  -0.00016  -0.00000  -0.00000   0.00002
 186        4XY        -0.00000  -0.00001  -0.00000   0.00003  -0.00001
 187        4XZ        -0.00001  -0.00007   0.00001   0.00002  -0.00000
 188        4YZ        -0.00000  -0.00005  -0.00001   0.00000   0.00000
 189 15  H  1S         -0.00001   0.00001  -0.00000  -0.00003   0.00004
 190        2S         -0.00003  -0.00018  -0.00001  -0.00001   0.00009
 191        3PX         0.00000   0.00001  -0.00001  -0.00001  -0.00000
 192        3PY        -0.00001   0.00003   0.00000  -0.00000  -0.00000
 193        3PZ         0.00001  -0.00001   0.00001   0.00001   0.00005
 194 16  H  1S          0.00000  -0.00011   0.00001   0.00031  -0.00006
 195        2S         -0.00001  -0.00023  -0.00007  -0.00087   0.00009
 196        3PX        -0.00000   0.00001  -0.00001  -0.00010  -0.00000
 197        3PY        -0.00000   0.00000   0.00000   0.00008   0.00001
 198        3PZ         0.00000  -0.00002   0.00000  -0.00011  -0.00001
 199 17  H  1S         -0.00011  -0.00001   0.00036  -0.00000  -0.00001
 200        2S         -0.00021   0.00002  -0.00094   0.00005   0.00010
 201        3PX        -0.00001   0.00000   0.00004  -0.00000   0.00000
 202        3PY         0.00000  -0.00000   0.00004  -0.00000  -0.00001
 203        3PZ        -0.00001   0.00000  -0.00013   0.00001   0.00002
                           6         7         8         9        10
                           O         O         O         O         O
     Eigenvalues --   -19.06307 -19.06082 -19.04986 -19.04984 -10.20557
   1 1   C  1S          0.00001  -0.00003  -0.00002   0.00002   0.00233
   2        2S          0.00004  -0.00012  -0.00010   0.00008  -0.00016
   3        2PX         0.00002  -0.00004   0.00007  -0.00004  -0.00003
   4        2PY        -0.00001   0.00006   0.00005  -0.00005  -0.00007
   5        2PZ        -0.00002   0.00001  -0.00002  -0.00001  -0.00004
   6        3S         -0.00020   0.00054   0.00013  -0.00024   0.00568
   7        3PX        -0.00030   0.00035  -0.00051   0.00036   0.00025
   8        3PY         0.00004  -0.00032  -0.00034   0.00038  -0.00107
   9        3PZ        -0.00015   0.00029  -0.00011  -0.00002   0.00198
  10        4XX         0.00001  -0.00008  -0.00004   0.00006  -0.00010
  11        4YY         0.00002  -0.00007  -0.00004   0.00003  -0.00034
  12        4ZZ        -0.00001  -0.00004  -0.00003   0.00004  -0.00023
  13        4XY         0.00001   0.00001   0.00001   0.00001   0.00001
  14        4XZ        -0.00002   0.00000   0.00001   0.00001   0.00001
  15        4YZ         0.00001  -0.00003   0.00000   0.00001   0.00017
  16 2   H  1S          0.00004  -0.00008  -0.00000   0.00008  -0.00006
  17        2S         -0.00017   0.00030  -0.00007  -0.00011  -0.00016
  18        3PX         0.00001  -0.00001   0.00001  -0.00002  -0.00001
  19        3PY        -0.00000   0.00001  -0.00001  -0.00001   0.00001
  20        3PZ        -0.00001   0.00002  -0.00001  -0.00001   0.00000
  21 3   H  1S          0.00001  -0.00003   0.00006  -0.00005  -0.00027
  22        2S          0.00021  -0.00018   0.00033  -0.00022  -0.00059
  23        3PX         0.00000  -0.00002  -0.00002   0.00002   0.00001
  24        3PY        -0.00001   0.00003  -0.00002   0.00000  -0.00003
  25        3PZ        -0.00000  -0.00001  -0.00000   0.00001   0.00001
  26 4   C  1S         -0.00003  -0.00002  -0.00003  -0.00002   0.99327
  27        2S         -0.00017  -0.00010  -0.00015  -0.00014   0.04993
  28        2PX        -0.00003   0.00002   0.00001  -0.00001   0.00009
  29        2PY        -0.00002   0.00003  -0.00002   0.00000   0.00047
  30        2PZ        -0.00001   0.00006   0.00005  -0.00004   0.00055
  31        3S          0.00116   0.00033   0.00085   0.00080  -0.02059
  32        3PX         0.00062   0.00003  -0.00055  -0.00030  -0.00029
  33        3PY         0.00016  -0.00079  -0.00006  -0.00025  -0.00161
  34        3PZ         0.00059  -0.00042  -0.00030   0.00006  -0.00007
  35        4XX        -0.00002   0.00002   0.00001   0.00001  -0.00861
  36        4YY        -0.00001  -0.00000  -0.00002   0.00002  -0.00858
  37        4ZZ         0.00002  -0.00005  -0.00002  -0.00001  -0.00841
  38        4XY        -0.00002  -0.00003   0.00003   0.00003  -0.00001
  39        4XZ        -0.00001  -0.00001   0.00002   0.00000   0.00002
  40        4YZ         0.00003   0.00002   0.00002  -0.00000  -0.00000
  41 5   O  1S          0.00001  -0.00000   0.00002  -0.00004  -0.00014
  42        2S          0.00002  -0.00001   0.00006  -0.00010  -0.00039
  43        2PX        -0.00004   0.00003  -0.00003   0.00003  -0.00000
  44        2PY        -0.00001  -0.00001  -0.00003   0.00003   0.00004
  45        2PZ        -0.00004  -0.00001  -0.00001   0.00000   0.00012
  46        3S         -0.00019   0.00025  -0.00020   0.00034   0.00388
  47        3PX         0.00019  -0.00010   0.00018  -0.00012   0.00000
  48        3PY         0.00004   0.00004   0.00010  -0.00009  -0.00012
  49        3PZ         0.00037  -0.00006   0.00008  -0.00001  -0.00091
  50        4XX         0.00004   0.00000   0.00007  -0.00008  -0.00016
  51        4YY         0.00000  -0.00000   0.00005  -0.00007  -0.00031
  52        4ZZ        -0.00007   0.00003   0.00005  -0.00010  -0.00070
  53        4XY        -0.00001   0.00001  -0.00002   0.00004   0.00001
  54        4XZ         0.00000   0.00001  -0.00002  -0.00001   0.00000
  55        4YZ        -0.00002  -0.00001  -0.00001   0.00000  -0.00028
  56 6   H  1S         -0.00005   0.00004   0.00003  -0.00001   0.00005
  57        2S         -0.00036  -0.00023  -0.00017   0.00007  -0.00028
  58        3PX        -0.00010  -0.00000   0.00001  -0.00001  -0.00003
  59        3PY         0.00007  -0.00000  -0.00002   0.00001  -0.00007
  60        3PZ         0.00006   0.00002   0.00001  -0.00001  -0.00013
  61 7   P  1S          0.00001   0.00001  -0.00000  -0.00000   0.00000
  62        2S         -0.00007  -0.00007  -0.00003  -0.00003  -0.00010
  63        2PX         0.00000   0.00001  -0.00000   0.00000   0.00002
  64        2PY         0.00001  -0.00000  -0.00000   0.00000  -0.00004
  65        2PZ        -0.00001   0.00002  -0.00001  -0.00000  -0.00001
  66        3S          0.00066   0.00076  -0.00009  -0.00010  -0.00017
  67        3PX        -0.00003  -0.00006   0.00005   0.00000  -0.00044
  68        3PY        -0.00003  -0.00000   0.00002   0.00000   0.00036
  69        3PZ         0.00017  -0.00021   0.00008   0.00004   0.00005
  70        4S         -0.00303  -0.00304   0.00057   0.00027   0.00484
  71        4PX         0.00003   0.00048  -0.00020  -0.00014  -0.00100
  72        4PY         0.00011   0.00093   0.00009  -0.00001   0.00207
  73        4PZ        -0.00212   0.00206  -0.00008  -0.00018   0.00036
  74        5XX        -0.00019  -0.00025  -0.00004   0.00001   0.00003
  75        5YY        -0.00027  -0.00015  -0.00003  -0.00003   0.00006
  76        5ZZ        -0.00006  -0.00017  -0.00003  -0.00004   0.00002
  77        5XY         0.00001  -0.00000  -0.00002   0.00003  -0.00003
  78        5XZ         0.00007   0.00001  -0.00001  -0.00003   0.00003
  79        5YZ        -0.00011   0.00012   0.00002  -0.00001   0.00008
  80 8   P  1S         -0.00000  -0.00000   0.00002   0.00001   0.00000
  81        2S         -0.00003  -0.00001  -0.00001  -0.00010  -0.00010
  82        2PX         0.00000  -0.00000  -0.00001  -0.00001  -0.00003
  83        2PY        -0.00000   0.00000  -0.00001   0.00001  -0.00002
  84        2PZ         0.00001   0.00000   0.00002  -0.00001  -0.00001
  85        3S         -0.00007  -0.00005   0.00085   0.00072  -0.00011
  86        3PX        -0.00004  -0.00001   0.00007   0.00010   0.00048
  87        3PY         0.00002   0.00001   0.00010  -0.00012   0.00024
  88        3PZ        -0.00008  -0.00002  -0.00024   0.00013   0.00008
  89        4S          0.00066  -0.00041  -0.00361  -0.00299   0.00436
  90        4PX         0.00034  -0.00009   0.00007  -0.00052   0.00095
  91        4PY        -0.00005  -0.00014  -0.00099   0.00148   0.00181
  92        4PZ         0.00018   0.00028   0.00257  -0.00156   0.00028
  93        5XX        -0.00002   0.00001  -0.00017  -0.00025  -0.00004
  94        5YY        -0.00003  -0.00000  -0.00024  -0.00018  -0.00004
  95        5ZZ        -0.00003  -0.00003  -0.00003  -0.00018   0.00005
  96        5XY         0.00002  -0.00003   0.00001  -0.00003   0.00008
  97        5XZ        -0.00003  -0.00003   0.00003   0.00000   0.00003
  98        5YZ        -0.00003   0.00002   0.00005  -0.00011   0.00000
  99 9   O  1S          0.99274   0.00106   0.00004  -0.00003   0.00005
 100        2S          0.02564   0.00005   0.00004  -0.00004   0.00020
 101        2PX        -0.00016   0.00002  -0.00002   0.00001   0.00004
 102        2PY         0.00020   0.00005  -0.00001   0.00000   0.00003
 103        2PZ        -0.00068   0.00001  -0.00001  -0.00000   0.00002
 104        3S          0.01247  -0.00013  -0.00018   0.00018  -0.00129
 105        3PX        -0.00024  -0.00011   0.00006  -0.00003  -0.00001
 106        3PY         0.00024  -0.00023   0.00002  -0.00001  -0.00033
 107        3PZ        -0.00039  -0.00025   0.00007  -0.00002   0.00016
 108        4XX        -0.00814   0.00003   0.00003  -0.00002   0.00016
 109        4YY        -0.00812  -0.00002   0.00004  -0.00004   0.00008
 110        4ZZ        -0.00814   0.00008   0.00003  -0.00003   0.00012
 111        4XY        -0.00001  -0.00001  -0.00001   0.00001  -0.00009
 112        4XZ         0.00000   0.00001  -0.00001   0.00000   0.00001
 113        4YZ         0.00000   0.00000   0.00001  -0.00001   0.00004
 114 10  O  1S          0.00002   0.00004  -0.15001   0.98134   0.00003
 115        2S          0.00001  -0.00005  -0.00384   0.02533   0.00015
 116        2PX        -0.00003  -0.00004   0.00001  -0.00004   0.00001
 117        2PY         0.00000   0.00001  -0.00005   0.00055   0.00001
 118        2PZ        -0.00000   0.00003   0.00012  -0.00046   0.00003
 119        3S         -0.00015   0.00018  -0.00205   0.01241  -0.00083
 120        3PX         0.00009   0.00012  -0.00004   0.00009  -0.00016
 121        3PY        -0.00003   0.00001  -0.00008   0.00043  -0.00035
 122        3PZ         0.00002  -0.00012  -0.00035  -0.00031  -0.00003
 123        4XX         0.00002  -0.00004   0.00129  -0.00804   0.00010
 124        4YY        -0.00001  -0.00005   0.00128  -0.00803   0.00005
 125        4ZZ        -0.00002  -0.00004   0.00131  -0.00804   0.00010
 126        4XY         0.00001  -0.00000  -0.00001   0.00000   0.00004
 127        4XZ         0.00000  -0.00002  -0.00001  -0.00001   0.00004
 128        4YZ        -0.00001  -0.00002  -0.00005  -0.00000  -0.00000
 129 11  O  1S          0.00001  -0.00001  -0.00001  -0.00004   0.00002
 130        2S          0.00002  -0.00003  -0.00013  -0.00012   0.00012
 131        2PX         0.00001  -0.00002  -0.00003   0.00002  -0.00003
 132        2PY        -0.00000  -0.00000  -0.00000   0.00000  -0.00003
 133        2PZ         0.00001   0.00001   0.00004  -0.00004   0.00003
 134        3S         -0.00011   0.00013   0.00073   0.00070  -0.00091
 135        3PX        -0.00006   0.00007   0.00024   0.00005  -0.00023
 136        3PY         0.00002   0.00001  -0.00009  -0.00020   0.00026
 137        3PZ        -0.00004  -0.00006  -0.00037   0.00018  -0.00009
 138        4XX         0.00002  -0.00002  -0.00004  -0.00007   0.00012
 139        4YY         0.00002  -0.00003  -0.00006  -0.00011   0.00003
 140        4ZZ         0.00003  -0.00002  -0.00008  -0.00011  -0.00000
 141        4XY         0.00000   0.00001   0.00000   0.00000   0.00004
 142        4XZ         0.00000  -0.00001  -0.00003   0.00001   0.00001
 143        4YZ        -0.00000   0.00000  -0.00001   0.00003   0.00002
 144 12  O  1S         -0.00006   0.00003   0.00001  -0.00001   0.00006
 145        2S         -0.00014  -0.00004   0.00002  -0.00001   0.00028
 146        2PX        -0.00002   0.00000  -0.00001  -0.00000  -0.00000
 147        2PY        -0.00002   0.00002  -0.00000  -0.00000  -0.00001
 148        2PZ        -0.00001   0.00003  -0.00000  -0.00001   0.00004
 149        3S          0.00084   0.00027  -0.00011   0.00004  -0.00152
 150        3PX        -0.00005  -0.00014   0.00004   0.00001   0.00039
 151        3PY        -0.00004  -0.00024   0.00001   0.00002   0.00020
 152        3PZ         0.00023  -0.00017  -0.00000   0.00003  -0.00048
 153        4XX        -0.00009   0.00003   0.00002  -0.00001   0.00017
 154        4YY        -0.00011   0.00000   0.00002  -0.00002   0.00016
 155        4ZZ        -0.00016  -0.00001   0.00001  -0.00002   0.00016
 156        4XY        -0.00001  -0.00000   0.00000  -0.00001  -0.00004
 157        4XZ        -0.00002   0.00001  -0.00000  -0.00000  -0.00000
 158        4YZ         0.00004  -0.00003  -0.00000  -0.00000   0.00001
 159 13  O  1S         -0.00104   0.99274  -0.00006  -0.00007   0.00003
 160        2S         -0.00003   0.02562  -0.00004  -0.00004   0.00016
 161        2PX        -0.00000   0.00008   0.00004   0.00004  -0.00005
 162        2PY         0.00005   0.00049  -0.00000   0.00001   0.00003
 163        2PZ        -0.00004   0.00055  -0.00000  -0.00002  -0.00002
 164        3S         -0.00000   0.01261   0.00011   0.00009  -0.00077
 165        3PX         0.00003  -0.00008  -0.00012  -0.00012   0.00028
 166        3PY        -0.00011   0.00047   0.00002  -0.00003  -0.00041
 167        3PZ         0.00041   0.00030   0.00001   0.00009  -0.00007
 168        4XX         0.00003  -0.00815  -0.00002  -0.00002   0.00011
 169        4YY         0.00001  -0.00813  -0.00005  -0.00005   0.00004
 170        4ZZ         0.00008  -0.00816  -0.00005  -0.00004   0.00009
 171        4XY         0.00001  -0.00000  -0.00002   0.00001  -0.00000
 172        4XZ        -0.00000  -0.00000   0.00000  -0.00002   0.00004
 173        4YZ         0.00005   0.00001   0.00002   0.00002  -0.00002
 174 14  O  1S         -0.00002   0.00002   0.98132   0.15005   0.00005
 175        2S          0.00003  -0.00013   0.02525   0.00396   0.00023
 176        2PX         0.00002  -0.00002   0.00010   0.00001   0.00001
 177        2PY        -0.00001   0.00000   0.00007   0.00008   0.00005
 178        2PZ         0.00001  -0.00000   0.00069   0.00011  -0.00001
 179        3S         -0.00016   0.00060   0.01283   0.00144  -0.00121
 180        3PX        -0.00009   0.00009   0.00019   0.00009  -0.00019
 181        3PY         0.00004   0.00002   0.00033  -0.00033  -0.00037
 182        3PZ        -0.00005   0.00009   0.00052   0.00025  -0.00021
 183        4XX         0.00003  -0.00008  -0.00810  -0.00114   0.00015
 184        4YY         0.00003  -0.00010  -0.00808  -0.00118   0.00011
 185        4ZZ         0.00003  -0.00008  -0.00810  -0.00110   0.00013
 186        4XY         0.00001  -0.00001   0.00000  -0.00001   0.00003
 187        4XZ        -0.00001   0.00000   0.00000   0.00001  -0.00002
 188        4YZ         0.00000   0.00001   0.00002  -0.00002  -0.00004
 189 15  H  1S         -0.00002   0.00002  -0.00009   0.00005  -0.00019
 190        2S         -0.00011   0.00023   0.00013  -0.00003  -0.00050
 191        3PX        -0.00000   0.00002   0.00001  -0.00002  -0.00002
 192        3PY         0.00001  -0.00002  -0.00001  -0.00001  -0.00004
 193        3PZ         0.00001  -0.00001   0.00000  -0.00000   0.00000
 194 16  H  1S         -0.00002  -0.00002  -0.00009   0.00005   0.00002
 195        2S          0.00003   0.00005   0.00044  -0.00025  -0.00055
 196        3PX        -0.00000   0.00000   0.00002  -0.00001  -0.00007
 197        3PY         0.00000  -0.00001  -0.00001   0.00003   0.00001
 198        3PZ        -0.00001   0.00000  -0.00002   0.00003   0.00002
 199 17  H  1S          0.00007  -0.00007   0.00001   0.00002  -0.00001
 200        2S         -0.00026   0.00036  -0.00005  -0.00004  -0.00059
 201        3PX         0.00002  -0.00004   0.00000   0.00001   0.00006
 202        3PY         0.00003  -0.00003   0.00000   0.00000   0.00002
 203        3PZ         0.00003  -0.00002  -0.00000   0.00000  -0.00006
                          11        12        13        14        15
                           O         O         O         O         O
     Eigenvalues --   -10.16099  -6.59713  -6.58598  -4.76209  -4.75920
   1 1   C  1S          0.99297  -0.00002  -0.00003  -0.00004   0.00000
   2        2S          0.05005  -0.00021  -0.00025  -0.00033   0.00016
   3        2PX        -0.00008  -0.00010   0.00009   0.00001   0.00003
   4        2PY        -0.00007  -0.00004  -0.00001  -0.00018   0.00013
   5        2PZ        -0.00004   0.00005   0.00007   0.00010  -0.00007
   6        3S         -0.01736   0.00093   0.00108   0.00349  -0.00131
   7        3PX         0.00030   0.00159  -0.00150   0.00031  -0.00095
   8        3PY         0.00147  -0.00115  -0.00164  -0.00127   0.00171
   9        3PZ        -0.00090   0.00051   0.00053   0.00166   0.00010
  10        4XX        -0.00882  -0.00001  -0.00006   0.00001  -0.00004
  11        4YY        -0.00900   0.00010   0.00010   0.00002  -0.00032
  12        4ZZ        -0.00891  -0.00001  -0.00002   0.00008   0.00006
  13        4XY         0.00001  -0.00010   0.00008  -0.00008   0.00012
  14        4XZ        -0.00000   0.00012  -0.00010   0.00006  -0.00005
  15        4YZ         0.00017  -0.00006  -0.00008  -0.00014   0.00001
  16 2   H  1S         -0.00006  -0.00015  -0.00020  -0.00005   0.00020
  17        2S          0.00242   0.00045   0.00060   0.00034  -0.00036
  18        3PX        -0.00001  -0.00004   0.00002  -0.00000  -0.00003
  19        3PY        -0.00014   0.00001  -0.00001   0.00003   0.00006
  20        3PZ        -0.00021   0.00004   0.00006  -0.00000  -0.00008
  21 3   H  1S         -0.00013  -0.00023   0.00013  -0.00024   0.00012
  22        2S          0.00229   0.00019   0.00086   0.00056  -0.00050
  23        3PX         0.00020  -0.00002  -0.00002   0.00001   0.00003
  24        3PY         0.00009  -0.00004   0.00002  -0.00010   0.00001
  25        3PZ         0.00008   0.00005  -0.00006  -0.00001  -0.00003
  26 4   C  1S         -0.00253   0.00015   0.00012   0.00005  -0.00001
  27        2S         -0.00017   0.00099   0.00085  -0.00004  -0.00070
  28        2PX         0.00001  -0.00006   0.00007   0.00027   0.00014
  29        2PY        -0.00010  -0.00007  -0.00007   0.00043   0.00004
  30        2PZ         0.00002  -0.00004  -0.00007  -0.00008   0.00030
  31        3S          0.00348  -0.00515  -0.00449  -0.00158   0.00218
  32        3PX         0.00017  -0.00190   0.00174  -0.00143   0.00075
  33        3PY         0.00201   0.00075   0.00060  -0.00466  -0.00131
  34        3PZ        -0.00132  -0.00026  -0.00000   0.00179  -0.00384
  35        4XX        -0.00010   0.00007   0.00008   0.00003   0.00019
  36        4YY        -0.00027   0.00022   0.00018   0.00020   0.00007
  37        4ZZ        -0.00018   0.00016   0.00013  -0.00006  -0.00024
  38        4XY         0.00000   0.00013  -0.00011  -0.00025  -0.00020
  39        4XZ         0.00000  -0.00000  -0.00000   0.00010  -0.00033
  40        4YZ         0.00010  -0.00004   0.00001   0.00018   0.00001
  41 5   O  1S         -0.00001  -0.00004  -0.00008   0.00001   0.00001
  42        2S         -0.00006  -0.00024  -0.00037   0.00006   0.00002
  43        2PX        -0.00001  -0.00004   0.00011  -0.00003   0.00012
  44        2PY        -0.00004  -0.00002   0.00003  -0.00010  -0.00006
  45        2PZ         0.00007   0.00003  -0.00000  -0.00004  -0.00000
  46        3S         -0.00018   0.00156   0.00192   0.00005   0.00070
  47        3PX        -0.00004   0.00053  -0.00103   0.00019  -0.00077
  48        3PY         0.00021  -0.00036  -0.00046   0.00094   0.00018
  49        3PZ        -0.00022  -0.00092  -0.00077  -0.00003  -0.00069
  50        4XX        -0.00016  -0.00010  -0.00020   0.00009   0.00001
  51        4YY         0.00000  -0.00007  -0.00019  -0.00016   0.00006
  52        4ZZ         0.00007  -0.00005  -0.00019   0.00013   0.00015
  53        4XY         0.00002   0.00001   0.00008   0.00002   0.00012
  54        4XZ        -0.00001  -0.00011   0.00011  -0.00008   0.00005
  55        4YZ        -0.00006   0.00007   0.00010  -0.00016   0.00005
  56 6   H  1S          0.00010  -0.00003  -0.00008   0.00010   0.00029
  57        2S          0.00018   0.00107   0.00070  -0.00085   0.00075
  58        3PX        -0.00003   0.00001  -0.00005  -0.00002   0.00006
  59        3PY         0.00001  -0.00007   0.00007   0.00008  -0.00000
  60        3PZ        -0.00002  -0.00007  -0.00008   0.00007  -0.00005
  61 7   P  1S         -0.00000  -0.27420  -0.00003   0.00118   0.00017
  62        2S         -0.00006   1.02397  -0.00000  -0.00467  -0.00080
  63        2PX        -0.00000   0.00346   0.00003   0.67007   0.54915
  64        2PY         0.00002   0.00227  -0.00000   0.67993  -0.22739
  65        2PZ         0.00001  -0.00083  -0.00000  -0.26870   0.79383
  66        3S         -0.00014   0.07513  -0.00067   0.00012  -0.00088
  67        3PX         0.00005  -0.00013  -0.00017   0.02073   0.01666
  68        3PY        -0.00029   0.00087   0.00005   0.02117  -0.00662
  69        3PZ        -0.00007  -0.00003   0.00001  -0.00837   0.02537
  70        4S          0.00096  -0.01176   0.00224   0.00278   0.00430
  71        4PX        -0.00036   0.00209  -0.00156  -0.00471  -0.00357
  72        4PY         0.00024  -0.00082  -0.00069  -0.00343   0.00271
  73        4PZ        -0.00036   0.00044  -0.00022   0.00267  -0.00355
  74        5XX        -0.00011  -0.01732   0.00035   0.00042  -0.00020
  75        5YY        -0.00011  -0.01717  -0.00005   0.00034  -0.00073
  76        5ZZ        -0.00006  -0.01694   0.00003  -0.00138   0.00122
  77        5XY         0.00002   0.00025  -0.00004   0.00177   0.00042
  78        5XZ         0.00000  -0.00014  -0.00004  -0.00078   0.00073
  79        5YZ         0.00002   0.00001   0.00002  -0.00100  -0.00089
  80 8   P  1S         -0.00001   0.00001  -0.27420   0.00001   0.00001
  81        2S         -0.00012  -0.00019   1.02401   0.00005   0.00007
  82        2PX         0.00002  -0.00003  -0.00326  -0.00035  -0.00046
  83        2PY        -0.00001  -0.00001   0.00211  -0.00012   0.00010
  84        2PZ         0.00000  -0.00001   0.00143  -0.00020   0.00040
  85        3S         -0.00050  -0.00079   0.07522   0.00061   0.00052
  86        3PX        -0.00021   0.00012   0.00012  -0.00061  -0.00031
  87        3PY        -0.00004   0.00007   0.00090  -0.00042  -0.00011
  88        3PZ        -0.00001   0.00003   0.00021  -0.00018   0.00015
  89        4S          0.00205   0.00278  -0.01290  -0.00302  -0.00253
  90        4PX         0.00003   0.00178  -0.00196  -0.00149  -0.00143
  91        4PY         0.00145  -0.00055  -0.00184   0.00047  -0.00004
  92        4PZ        -0.00044  -0.00027   0.00066  -0.00049   0.00174
  93        5XX        -0.00010   0.00035  -0.01725  -0.00058  -0.00037
  94        5YY        -0.00007  -0.00007  -0.01709   0.00000   0.00009
  95        5ZZ        -0.00006   0.00003  -0.01712  -0.00007   0.00002
  96        5XY        -0.00005   0.00006  -0.00023  -0.00010  -0.00006
  97        5XZ        -0.00002   0.00003   0.00005  -0.00010   0.00014
  98        5YZ        -0.00001  -0.00001  -0.00007  -0.00007   0.00008
  99 9   O  1S         -0.00001  -0.00012   0.00002   0.00029  -0.00050
 100        2S         -0.00003   0.00062   0.00010   0.00009   0.00166
 101        2PX         0.00000  -0.00011  -0.00002   0.00014  -0.00033
 102        2PY         0.00002   0.00019  -0.00002  -0.00001   0.00046
 103        2PZ         0.00000  -0.00067   0.00000   0.00029  -0.00135
 104        3S          0.00011  -0.00350  -0.00053  -0.00074  -0.00732
 105        3PX         0.00001   0.00023   0.00024  -0.00064   0.00095
 106        3PY        -0.00005  -0.00065   0.00010  -0.00031  -0.00168
 107        3PZ        -0.00003   0.00225   0.00001  -0.00079   0.00427
 108        4XX        -0.00001   0.00024   0.00006   0.00036   0.00048
 109        4YY        -0.00003   0.00022   0.00002   0.00017   0.00039
 110        4ZZ        -0.00001   0.00084   0.00007   0.00009   0.00124
 111        4XY        -0.00000  -0.00003   0.00002  -0.00004  -0.00010
 112        4XZ         0.00001   0.00024  -0.00001   0.00021   0.00045
 113        4YZ        -0.00002  -0.00020  -0.00005   0.00034  -0.00024
 114 10  O  1S         -0.00004   0.00001  -0.00015   0.00004   0.00001
 115        2S         -0.00015   0.00006   0.00058   0.00014   0.00004
 116        2PX        -0.00001  -0.00006  -0.00008   0.00018  -0.00005
 117        2PY         0.00001  -0.00003   0.00053   0.00006   0.00003
 118        2PZ         0.00002  -0.00004  -0.00053   0.00001   0.00006
 119        3S          0.00072  -0.00058  -0.00332  -0.00009  -0.00017
 120        3PX         0.00004   0.00009   0.00043  -0.00057   0.00025
 121        3PY        -0.00002   0.00007  -0.00159  -0.00020  -0.00019
 122        3PZ        -0.00012   0.00022   0.00163  -0.00000  -0.00027
 123        4XX        -0.00013   0.00008   0.00010   0.00006  -0.00000
 124        4YY        -0.00012   0.00000   0.00061   0.00016  -0.00001
 125        4ZZ        -0.00012  -0.00004   0.00048   0.00021   0.00005
 126        4XY         0.00002   0.00001   0.00003  -0.00006   0.00002
 127        4XZ        -0.00000   0.00001  -0.00001  -0.00000  -0.00000
 128        4YZ        -0.00002  -0.00005  -0.00046   0.00009   0.00002
 129 11  O  1S          0.00006   0.00001   0.00001  -0.00002   0.00000
 130        2S          0.00027   0.00003   0.00047  -0.00009   0.00000
 131        2PX         0.00006   0.00006   0.00001  -0.00004  -0.00008
 132        2PY        -0.00000   0.00003  -0.00017   0.00000  -0.00005
 133        2PZ        -0.00001  -0.00001  -0.00012  -0.00001   0.00006
 134        3S         -0.00125  -0.00003  -0.00302   0.00035  -0.00020
 135        3PX        -0.00053  -0.00026  -0.00055   0.00024   0.00030
 136        3PY         0.00014  -0.00013   0.00141  -0.00005   0.00023
 137        3PZ         0.00003   0.00003   0.00148   0.00012  -0.00028
 138        4XX         0.00016   0.00001   0.00037  -0.00007   0.00003
 139        4YY         0.00020   0.00004   0.00028  -0.00006  -0.00003
 140        4ZZ         0.00022   0.00004   0.00005  -0.00010   0.00002
 141        4XY        -0.00002   0.00001   0.00011  -0.00002   0.00001
 142        4XZ         0.00005   0.00001  -0.00020  -0.00002  -0.00002
 143        4YZ        -0.00004   0.00001   0.00011   0.00000   0.00001
 144 12  O  1S         -0.00002   0.00005  -0.00000  -0.00010  -0.00001
 145        2S         -0.00006   0.00068  -0.00002   0.00149   0.00002
 146        2PX         0.00005  -0.00012  -0.00007  -0.00043  -0.00002
 147        2PY         0.00001  -0.00019   0.00002  -0.00035  -0.00006
 148        2PZ         0.00003  -0.00003  -0.00002   0.00009   0.00022
 149        3S          0.00017  -0.00398   0.00023  -0.00658  -0.00024
 150        3PX        -0.00008   0.00135   0.00026   0.00343   0.00017
 151        3PY        -0.00004   0.00177  -0.00008   0.00297   0.00048
 152        3PZ        -0.00014   0.00034   0.00012  -0.00024  -0.00194
 153        4XX        -0.00005   0.00057  -0.00003   0.00055   0.00026
 154        4YY        -0.00009   0.00049  -0.00000   0.00060  -0.00025
 155        4ZZ        -0.00003   0.00010  -0.00000   0.00021   0.00002
 156        4XY         0.00001  -0.00001  -0.00001  -0.00034   0.00013
 157        4XZ         0.00002  -0.00004  -0.00001   0.00008   0.00034
 158        4YZ        -0.00003   0.00002  -0.00001   0.00012   0.00036
 159 13  O  1S          0.00006  -0.00020   0.00001   0.00022   0.00037
 160        2S          0.00024   0.00042   0.00008  -0.00037  -0.00042
 161        2PX        -0.00003   0.00008   0.00008   0.00007   0.00007
 162        2PY         0.00007   0.00045  -0.00003  -0.00022  -0.00054
 163        2PZ         0.00000   0.00059   0.00004  -0.00039  -0.00042
 164        3S         -0.00110  -0.00234  -0.00070   0.00151   0.00167
 165        3PX         0.00013  -0.00045  -0.00020  -0.00043  -0.00033
 166        3PY        -0.00033  -0.00134   0.00005   0.00050   0.00149
 167        3PZ        -0.00010  -0.00179  -0.00021   0.00136   0.00078
 168        4XX         0.00020  -0.00004   0.00011  -0.00004   0.00016
 169        4YY         0.00016   0.00037  -0.00000  -0.00037   0.00005
 170        4ZZ         0.00020   0.00046  -0.00002   0.00008  -0.00042
 171        4XY         0.00002  -0.00001  -0.00002  -0.00022  -0.00009
 172        4XZ         0.00000   0.00001   0.00001  -0.00017  -0.00016
 173        4YZ        -0.00003   0.00046   0.00005  -0.00015  -0.00035
 174 14  O  1S          0.00005   0.00003  -0.00023   0.00000  -0.00006
 175        2S          0.00021   0.00017   0.00022  -0.00001  -0.00028
 176        2PX         0.00001  -0.00000   0.00005   0.00001   0.00007
 177        2PY         0.00002  -0.00003   0.00005   0.00003   0.00002
 178        2PZ        -0.00001   0.00001   0.00072  -0.00001   0.00001
 179        3S         -0.00112  -0.00093  -0.00146   0.00014   0.00167
 180        3PX        -0.00008  -0.00019   0.00008   0.00008  -0.00003
 181        3PY        -0.00027   0.00011  -0.00001  -0.00015  -0.00001
 182        3PZ        -0.00009  -0.00014  -0.00217   0.00002   0.00011
 183        4XX         0.00011   0.00011  -0.00007  -0.00000  -0.00017
 184        4YY         0.00013   0.00005  -0.00012   0.00004  -0.00007
 185        4ZZ         0.00016   0.00011   0.00060  -0.00001  -0.00018
 186        4XY         0.00000   0.00000   0.00003  -0.00001  -0.00002
 187        4XZ         0.00001  -0.00002   0.00024  -0.00001   0.00001
 188        4YZ        -0.00003   0.00002   0.00013  -0.00003  -0.00001
 189 15  H  1S         -0.00008   0.00013  -0.00021  -0.00009  -0.00010
 190        2S          0.00249   0.00068   0.00050  -0.00003  -0.00042
 191        3PX        -0.00020   0.00000   0.00004  -0.00003   0.00001
 192        3PY         0.00008   0.00002  -0.00006   0.00000  -0.00008
 193        3PZ         0.00008  -0.00006   0.00005  -0.00004   0.00001
 194 16  H  1S         -0.00001  -0.00002   0.00057   0.00007  -0.00008
 195        2S         -0.00057   0.00015   0.00136  -0.00013   0.00015
 196        3PX        -0.00006   0.00002   0.00016  -0.00000  -0.00001
 197        3PY         0.00004   0.00001  -0.00018  -0.00000  -0.00002
 198        3PZ        -0.00005  -0.00002   0.00006   0.00004   0.00000
 199 17  H  1S         -0.00011   0.00061   0.00006   0.00082  -0.00054
 200        2S         -0.00015   0.00111  -0.00005   0.00124  -0.00129
 201        3PX         0.00004  -0.00013  -0.00002  -0.00025   0.00008
 202        3PY         0.00001  -0.00016   0.00001  -0.00023  -0.00001
 203        3PZ        -0.00002   0.00015  -0.00000   0.00019  -0.00007
                          16        17        18        19        20
                           O         O         O         O         O
     Eigenvalues --    -4.75896  -4.75108  -4.74797  -4.74779  -1.00735
   1 1   C  1S         -0.00005  -0.00004  -0.00003   0.00000  -0.01044
   2        2S         -0.00036  -0.00011  -0.00015  -0.00025   0.01708
   3        2PX        -0.00000   0.00004   0.00005  -0.00009   0.00210
   4        2PY        -0.00009   0.00014   0.00005  -0.00026  -0.00730
   5        2PZ         0.00010  -0.00001  -0.00003   0.00017   0.00920
   6        3S          0.00195  -0.00016  -0.00026   0.00266   0.01431
   7        3PX         0.00173  -0.00018  -0.00125  -0.00093   0.00203
   8        3PY        -0.00100  -0.00065   0.00022  -0.00210  -0.01092
   9        3PZ         0.00131  -0.00116   0.00025   0.00116   0.00499
  10        4XX         0.00000  -0.00013  -0.00004   0.00011  -0.00037
  11        4YY         0.00000   0.00005  -0.00012   0.00034   0.00046
  12        4ZZ         0.00008  -0.00018   0.00001   0.00010   0.00062
  13        4XY        -0.00018  -0.00006   0.00006   0.00022  -0.00040
  14        4XZ         0.00021   0.00005  -0.00012  -0.00014   0.00002
  15        4YZ        -0.00012   0.00007  -0.00003  -0.00012  -0.00208
  16 2   H  1S         -0.00009  -0.00020   0.00006  -0.00020   0.00257
  17        2S          0.00045  -0.00023  -0.00021   0.00092   0.00386
  18        3PX        -0.00009  -0.00001   0.00010  -0.00004   0.00009
  19        3PY         0.00005  -0.00004   0.00005  -0.00005   0.00035
  20        3PZ        -0.00001   0.00004  -0.00005   0.00008   0.00052
  21 3   H  1S         -0.00032   0.00005   0.00007   0.00001   0.00550
  22        2S          0.00018   0.00038   0.00038   0.00032   0.00849
  23        3PX        -0.00003  -0.00007   0.00001   0.00005  -0.00022
  24        3PY        -0.00009   0.00003  -0.00002   0.00010  -0.00097
  25        3PZ         0.00006   0.00003  -0.00007  -0.00005   0.00024
  26 4   C  1S          0.00015  -0.00002   0.00011   0.00005  -0.04037
  27        2S          0.00189   0.00012   0.00142   0.00130   0.06866
  28        2PX         0.00016   0.00024  -0.00000  -0.00007   0.01078
  29        2PY         0.00015  -0.00028  -0.00016   0.00023   0.00759
  30        2PZ         0.00008  -0.00011   0.00022  -0.00031   0.03466
  31        3S         -0.00841   0.00064  -0.00615  -0.00521   0.05387
  32        3PX        -0.00530  -0.00160   0.00282   0.00372   0.01209
  33        3PY        -0.00059   0.00295   0.00202  -0.00119  -0.01895
  34        3PZ        -0.00247   0.00168  -0.00426   0.00265  -0.00390
  35        4XX        -0.00026   0.00006  -0.00010  -0.00029   0.00074
  36        4YY         0.00022  -0.00023   0.00013   0.00006  -0.00192
  37        4ZZ         0.00004   0.00018   0.00003   0.00008   0.00476
  38        4XY         0.00048  -0.00016  -0.00039  -0.00034  -0.00164
  39        4XZ        -0.00013  -0.00016   0.00025  -0.00026   0.00063
  40        4YZ        -0.00005  -0.00005  -0.00012  -0.00001   0.00330
  41 5   O  1S         -0.00009   0.00003  -0.00012  -0.00007  -0.08193
  42        2S         -0.00052   0.00018  -0.00070  -0.00029   0.17597
  43        2PX         0.00001  -0.00001   0.00004   0.00016   0.01942
  44        2PY        -0.00009   0.00014   0.00002   0.00001  -0.03752
  45        2PZ         0.00002  -0.00001  -0.00001   0.00005  -0.02084
  46        3S          0.00386  -0.00158   0.00437   0.00114   0.18002
  47        3PX         0.00072   0.00039  -0.00092  -0.00132   0.00673
  48        3PY        -0.00043  -0.00058  -0.00112   0.00007  -0.01403
  49        3PZ        -0.00196   0.00084  -0.00157  -0.00077  -0.01850
  50        4XX        -0.00021   0.00003  -0.00033  -0.00017  -0.00367
  51        4YY        -0.00017   0.00023  -0.00017  -0.00028  -0.00248
  52        4ZZ        -0.00001  -0.00005  -0.00020  -0.00012   0.00168
  53        4XY         0.00006  -0.00002   0.00004   0.00013  -0.00193
  54        4XZ        -0.00025  -0.00004   0.00016   0.00018   0.00003
  55        4YZ         0.00011   0.00003   0.00020   0.00006   0.00315
  56 6   H  1S          0.00005  -0.00024  -0.00020   0.00013   0.05645
  57        2S          0.00136  -0.00021   0.00086   0.00054   0.01192
  58        3PX        -0.00002   0.00002  -0.00008  -0.00002  -0.00500
  59        3PY        -0.00006  -0.00002  -0.00001   0.00013   0.00588
  60        3PZ        -0.00006   0.00002  -0.00012  -0.00001  -0.00563
  61 7   P  1S         -0.00011  -0.00001  -0.00000  -0.00000   0.02703
  62        2S          0.00042  -0.00006  -0.00006  -0.00006  -0.12315
  63        2PX        -0.48290   0.00070   0.00048   0.00027  -0.02433
  64        2PY         0.68523  -0.00042   0.00011   0.00023  -0.01362
  65        2PZ         0.52983   0.00018  -0.00040   0.00036   0.00515
  66        3S          0.00015  -0.00068  -0.00037  -0.00027   0.23159
  67        3PX        -0.01455  -0.00053  -0.00035   0.00000   0.04048
  68        3PY         0.02128   0.00034  -0.00000  -0.00010   0.03144
  69        3PZ         0.01740  -0.00006   0.00016  -0.00016  -0.00989
  70        4S         -0.00001   0.00335   0.00139   0.00008  -0.04800
  71        4PX         0.00340  -0.00157  -0.00154  -0.00038   0.00177
  72        4PY        -0.00252  -0.00050  -0.00102  -0.00042  -0.01991
  73        4PZ        -0.00176  -0.00046   0.00153  -0.00155   0.00058
  74        5XX         0.00077   0.00055   0.00037   0.00018  -0.00957
  75        5YY         0.00003   0.00008  -0.00017  -0.00010  -0.00411
  76        5ZZ        -0.00063   0.00008   0.00003  -0.00010  -0.00201
  77        5XY        -0.00083  -0.00009  -0.00004   0.00008   0.01542
  78        5XZ         0.00007   0.00000  -0.00021   0.00009  -0.00672
  79        5YZ        -0.00095  -0.00003   0.00009  -0.00008  -0.00394
  80 8   P  1S         -0.00000  -0.00117  -0.00007  -0.00009   0.00773
  81        2S         -0.00006   0.00467   0.00026   0.00047  -0.03529
  82        2PX         0.00039   0.68964   0.54177   0.46325   0.00293
  83        2PY        -0.00039  -0.61761   0.13275   0.76450  -0.00436
  84        2PZ         0.00016  -0.35573   0.81987  -0.42952  -0.00244
  85        3S         -0.00028   0.00002   0.00005   0.00086   0.06480
  86        3PX         0.00003   0.02121   0.01686   0.01388  -0.00395
  87        3PY        -0.00014  -0.01911   0.00367   0.02379   0.01100
  88        3PZ         0.00010  -0.01073   0.02616  -0.01382   0.00467
  89        4S         -0.00039  -0.00371  -0.00035  -0.00379  -0.01189
  90        4PX         0.00045  -0.00558  -0.00386  -0.00329   0.00058
  91        4PY        -0.00088   0.00331  -0.00028  -0.00475  -0.00800
  92        4PZ         0.00097   0.00164  -0.00278   0.00144  -0.00026
  93        5XX         0.00022  -0.00054   0.00039   0.00065  -0.00085
  94        5YY        -0.00016  -0.00020   0.00091  -0.00032  -0.00012
  95        5ZZ        -0.00007   0.00128  -0.00130  -0.00054  -0.00188
  96        5XY        -0.00008   0.00173   0.00067   0.00069  -0.00166
  97        5XZ         0.00008   0.00090  -0.00045   0.00041   0.00060
  98        5YZ         0.00004  -0.00089  -0.00045   0.00128   0.00092
  99 9   O  1S         -0.00011  -0.00000   0.00005  -0.00004  -0.05409
[...]
 176        2PX         0.00338  -0.00278  -0.00380
 177        2PY         0.00247  -0.02261  -0.01046
 178        2PZ        -0.00073  -0.01541  -0.01096
 179        3S          0.38303   1.03971   0.49321
 180        3PX         0.01738   0.04853   0.00409
 181        3PY         0.03827   0.14840   0.07494
 182        3PZ         0.13873   0.11598   0.05924
 183        4XX        -0.03205  -0.24488  -0.10534
 184        4YY        -0.02991  -0.23459  -0.12168
 185        4ZZ        -0.01879  -0.24033  -0.12143
 186        4XY        -0.01439  -0.01570   0.01025
 187        4XZ        -0.00210   0.00441  -0.00670
 188        4YZ        -0.00318   0.03312   0.01457
 189 15  H  1S          0.02592   0.16284   0.14954
 190        2S          0.02089  -0.02585  -0.31757
 191        3PX         0.00995   0.18173   0.22707
 192        3PY        -0.03051  -0.07590  -0.13933
 193        3PZ         0.05294  -0.07885  -0.05628
 194 16  H  1S          0.21480   0.01413   0.07546
 195        2S          0.05200   0.20917   0.09742
 196        3PX         0.10283   0.05691   0.04093
 197        3PY        -0.06319  -0.02629  -0.02899
 198        3PZ         0.22722  -0.00509   0.07206
 199 17  H  1S          0.44473  -0.07599   0.01482
 200        2S          0.14311   0.13983   0.00989
 201        3PX         0.00813  -0.06035  -0.01319
 202        3PY        -0.00586  -0.01679  -0.00297
 203        3PZ         0.44114  -0.07515  -0.02050
          Condensed to atoms (all electrons):
 Mulliken charges:
               1
     1  C   -0.326483
     2  H    0.105457
     3  H    0.095712
     4  C   -0.110259
     5  O   -0.607305
     6  H    0.310185
     7  P    0.959147
     8  P    0.965036
     9  O   -0.716629
    10  O   -0.711228
    11  O   -0.650134
    12  O   -0.625395
    13  O   -0.697123
    14  O   -0.728022
    15  H    0.092676
    16  H    0.317666
    17  H    0.326698
 Sum of Mulliken charges =  -2.00000
 Mulliken charges with hydrogens summed into heavy atoms:
               1
     1  C   -0.032638
     4  C   -0.110259
     5  O   -0.297120
     7  P    0.959147
     8  P    0.965036
     9  O   -0.716629
    10  O   -0.711228
    11  O   -0.332468
    12  O   -0.298697
    13  O   -0.697123
    14  O   -0.728022
 Electronic spatial extent (au):  <R**2>=           1998.0458
 Charge=             -2.0000 electrons
 Dipole moment (field-independent basis, Debye):
    X=              0.7133    Y=              9.3327    Z=             -3.1151  Tot=              9.8647
 There are a total of      380640 grid points.
 ElSum from          density=      105.9999939169
 ElSum from atomic densities=      103.9999921406
 Hirshfeld populations at iteration   1 (CA, CB, DipXYZ):
               1          2          3          4          5
     1  C    3.052140   3.052140  -0.003193   0.001710  -0.009636
     2  H    0.487292   0.487292   0.008982  -0.023016  -0.133578
     3  H    0.490745   0.490745   0.093167   0.092381   0.008095
     4  C    3.007588   3.007588   0.005362   0.068801   0.048272
     5  O    4.141860   4.141860   0.070891  -0.133258  -0.081968
     6  H    0.445043   0.445043   0.045746  -0.056807   0.113814
     7  P    7.331181   7.331181  -0.013932   0.159003  -0.054388
     8  P    7.342261   7.342261   0.005376   0.165009   0.016493
     9  O    4.252541   4.252541  -0.076822   0.075725  -0.080090
    10  O    4.273460   4.273460   0.016057   0.105726  -0.074824
    11  O    4.160355   4.160355   0.019342  -0.001941  -0.157505
    12  O    4.151890   4.151890  -0.083322  -0.039591  -0.123710
    13  O    4.263904   4.263904  -0.003027   0.093632   0.078566
    14  O    4.271127   4.271127   0.031444   0.052676   0.119270
    15  H    0.488928   0.488928  -0.105196   0.082906   0.011664
    16  H    0.422260   0.422260  -0.119289   0.096688  -0.157394
    17  H    0.417423   0.417423   0.023701   0.036031  -0.220792
       Tot  52.999997  52.999997  -0.084713   0.775678  -0.697712

 Dip from Atomic Chgs              0.365327   2.896114  -0.527848
         Total Dipole              0.280614   3.671793  -1.225561

 Hirshfeld charges, spin densities, dipoles, and CM5 charges using IRadAn=      5:
              Q-H        S-H        Dx         Dy         Dz        Q-CM5   
     1  C   -0.104281   0.000000  -0.003193   0.001710  -0.009636  -0.238660
     2  H    0.025416   0.000000   0.008982  -0.023016  -0.133578   0.082559
     3  H    0.018511   0.000000   0.093167   0.092381   0.008095   0.077030
     4  C   -0.015176   0.000000   0.005362   0.068801   0.048272   0.049634
     5  O   -0.283719   0.000000   0.070891  -0.133258  -0.081968  -0.472125
     6  H    0.109913   0.000000   0.045746  -0.056807   0.113814   0.301217
     7  P    0.337638   0.000000  -0.013932   0.159003  -0.054388   0.306363
     8  P    0.315478   0.000000   0.005376   0.165009   0.016493   0.287907
     9  O   -0.505082   0.000000  -0.076822   0.075725  -0.080090  -0.529444
    10  O   -0.546921   0.000000   0.016057   0.105726  -0.074824  -0.557053
    11  O   -0.320710   0.000000   0.019342  -0.001941  -0.157505  -0.493696
    12  O   -0.303780   0.000000  -0.083322  -0.039591  -0.123710  -0.478753
    13  O   -0.527807   0.000000  -0.003027   0.093632   0.078566  -0.540380
    14  O   -0.542254   0.000000   0.031444   0.052676   0.119270  -0.557770
    15  H    0.022144   0.000000  -0.105196   0.082906   0.011664   0.079885
    16  H    0.155480   0.000000  -0.119289   0.096688  -0.157394   0.337803
    17  H    0.165155   0.000000   0.023701   0.036031  -0.220792   0.345489
       Tot  -1.999994   0.000000  -0.084713   0.775678  -0.697712  -1.999994
 Hirshfeld charges with hydrogens summed into heavy atoms:
              Q-H       Q-CM5   
     1  C   -0.038210   0.000814
     4  C   -0.015176   0.049634
     5  O   -0.173806  -0.170907
     7  P    0.337638   0.306363
     8  P    0.315478   0.287907
     9  O   -0.505082  -0.529444
    10  O   -0.546921  -0.557053
    11  O   -0.165230  -0.155893
    12  O   -0.138625  -0.133264
    13  O   -0.527807  -0.540380
    14  O   -0.542254  -0.557770
 
 EQQ= 0.000000000000E+00 EQD= 0.000000000000E+00 EDD= 0.991919303662E-02
 EQQ+QD+DD= 0.991919303662E-02
 
 Orbital energies and kinetic energies (alpha):
                                 1                 2
   1         O               -77.148288        106.045602
   2         O               -77.137352        106.045673
   3         O               -19.133877         29.027011
   4         O               -19.122460         29.027266
   5         O               -19.116588         29.028315
   6         O               -19.063069         29.028558
   7         O               -19.060817         29.028420
   8         O               -19.049862         29.028020
   9         O               -19.049842         29.028748
  10         O               -10.205571         15.891012
  11         O               -10.160986         15.883092
  12         O                -6.597135         15.694371
  13         O                -6.585985         15.694720
  14         O                -4.762092         14.709526
  15         O                -4.759203         14.707978
  16         O                -4.758964         14.708306
  17         O                -4.751079         14.710577
  18         O                -4.747970         14.706734
  19         O                -4.747789         14.709594
  20         O                -1.007346          2.478528
  21         O                -0.994889          2.533094
  22         O                -0.981477          2.573421
  23         O                -0.923346          2.785022
  24         O                -0.912525          2.779488
  25         O                -0.886106          2.892388
  26         O                -0.873873          2.891088
  27         O                -0.726430          1.534705
  28         O                -0.598245          1.772422
  29         O                -0.546884          2.107833
  30         O                -0.510350          2.081753
  31         O                -0.488891          1.655997
  32         O                -0.447097          1.674312
  33         O                -0.415003          2.246599
  34         O                -0.403819          2.135440
  35         O                -0.398096          1.651811
  36         O                -0.374669          1.687395
  37         O                -0.368708          2.148303
  38         O                -0.366962          1.604690
  39         O                -0.350856          1.842842
  40         O                -0.336688          1.968391
  41         O                -0.331833          2.439769
  42         O                -0.322762          2.436472
  43         O                -0.294846          2.177300
  44         O                -0.291060          2.165461
  45         O                -0.272599          2.150760
  46         O                -0.271414          2.104547
  47         O                -0.254965          2.196778
  48         O                -0.244250          2.145108
  49         O                -0.238835          2.198443
  50         O                -0.232581          2.262402
  51         O                -0.228772          2.259663
  52         O                -0.219048          2.285826
  53         O                -0.204682          2.246172
  54         V                 0.082482          1.536305
  55         V                 0.108052          1.479395
  56         V                 0.118486          1.937593
  57         V                 0.126261          1.778925
  58         V                 0.162381          1.564607
  59         V                 0.168707          1.350171
  60         V                 0.178042          2.096559
  61         V                 0.179843          2.058306
  62         V                 0.189646          2.145933
  63         V                 0.210538          1.774305
  64         V                 0.214624          2.054708
  65         V                 0.226937          1.960900
  66         V                 0.239295          1.811185
  67         V                 0.262991          1.562870
  68         V                 0.274071          2.764774
  69         V                 0.295916          1.937726
  70         V                 0.358707          2.425442
  71         V                 0.369770          2.497050
  72         V                 0.411384          2.452771
  73         V                 0.415860          2.523731
  74         V                 0.446542          2.242720
  75         V                 0.447459          2.107710
  76         V                 0.482856          2.456365
  77         V                 0.507358          2.530715
  78         V                 0.577605          2.197200
  79         V                 0.600101          2.397284
  80         V                 0.607518          2.301504
  81         V                 0.664606          2.380900
  82         V                 0.673193          2.503984
  83         V                 0.689008          2.445934
  84         V                 0.733254          2.162417
  85         V                 0.778186          2.518636
  86         V                 0.785693          2.533877
  87         V                 0.801786          2.799335
  88         V                 0.814359          2.576187
  89         V                 0.829404          2.601832
  90         V                 0.856389          2.505125
  91         V                 0.859257          2.641991
  92         V                 0.870007          2.634029
  93         V                 0.899408          2.543502
  94         V                 0.919963          2.608566
  95         V                 0.925547          2.512169
  96         V                 0.932767          2.813015
  97         V                 0.942651          2.802415
  98         V                 0.952145          2.687637
  99         V                 0.966303          2.783159
 100         V                 0.992124          3.055263
 101         V                 1.015943          3.093216
 102         V                 1.034279          3.101284
 103         V                 1.037580          3.021061
 104         V                 1.056178          2.975388
 105         V                 1.059015          3.359677
 106         V                 1.068267          3.215554
 107         V                 1.078242          2.811411
 108         V                 1.088355          3.297049
 109         V                 1.094148          3.406397
 110         V                 1.111899          3.308707
 111         V                 1.125657          3.245910
 112         V                 1.135557          3.086722
 113         V                 1.173845          3.460237
 114         V                 1.189306          3.618229
 115         V                 1.213674          3.871554
 116         V                 1.229177          3.993666
 117         V                 1.239908          3.819010
 118         V                 1.257895          3.462116
 119         V                 1.263257          3.474399
 120         V                 1.294490          3.186644
 121         V                 1.349833          2.997572
 122         V                 1.373130          2.899299
 123         V                 1.434315          2.739083
 124         V                 1.445125          2.654663
 125         V                 1.470989          2.744226
 126         V                 1.500551          2.773293
 127         V                 1.523795          2.775420
 128         V                 1.562347          2.726934
 129         V                 1.605211          2.667980
 130         V                 1.612851          2.676330
 131         V                 1.651259          2.816813
 132         V                 1.663972          2.756038
 133         V                 1.705008          2.792152
 134         V                 1.721986          2.861805
 135         V                 1.727469          2.871744
 136         V                 1.776502          2.855507
 137         V                 1.820184          2.943830
 138         V                 1.842381          2.945749
 139         V                 1.857287          2.911798
 140         V                 1.861641          2.853417
 141         V                 1.878061          2.930944
 142         V                 1.881356          2.920698
 143         V                 1.894977          3.060110
 144         V                 1.902959          2.986226
 145         V                 1.908368          3.030706
 146         V                 1.923102          3.040757
 147         V                 1.943144          3.031305
 148         V                 1.951905          3.136405
 149         V                 1.973315          3.155884
 150         V                 2.020529          3.291977
 151         V                 2.039301          3.511348
 152         V                 2.054309          3.203429
 153         V                 2.069461          3.259017
 154         V                 2.078284          3.381541
 155         V                 2.096752          3.264126
 156         V                 2.129885          3.300297
 157         V                 2.132046          3.310515
 158         V                 2.156174          3.381497
 159         V                 2.180204          3.477388
 160         V                 2.196862          3.442053
 161         V                 2.226919          3.384961
 162         V                 2.289641          3.574667
 163         V                 2.309522          3.575760
 164         V                 2.353644          3.552203
 165         V                 2.381482          3.773233
 166         V                 2.414532          3.722486
 167         V                 2.453888          3.797003
 168         V                 2.466058          3.766101
 169         V                 2.511988          3.891840
 170         V                 2.524592          3.762019
 171         V                 2.547892          4.547822
 172         V                 2.561297          4.124018
 173         V                 2.662966          3.602109
 174         V                 2.669313          3.597893
 175         V                 2.698730          3.668238
 176         V                 2.734086          3.789859
 177         V                 2.741896          3.788323
 178         V                 2.763013          3.975256
 179         V                 2.804113          4.388694
 180         V                 2.821075          4.347313
 181         V                 2.851439          4.414615
 182         V                 2.873769          4.792894
 183         V                 2.883600          4.601067
 184         V                 2.899616          4.093860
 185         V                 2.959709          4.380944
 186         V                 3.035332          4.542954
 187         V                 3.235190          4.960450
 188         V                 3.398604          6.392616
 189         V                 3.413342          6.402513
 190         V                 3.461033          5.244526
 191         V                 3.471049          5.356996
 192         V                 3.512972          6.229539
 193         V                 3.559046          9.989447
 194         V                 3.608167         10.269640
 195         V                 3.850695          9.491534
 196         V                 3.888435         10.202823
 197         V                 3.937009          9.895005
 198         V                 3.983154         10.472664
 199         V                 4.044352         10.586937
 200         V                 4.137983         10.560845
 201         V                 4.244516         10.665467
 202         V                 4.413405         10.534872
 203         V                 4.605342         10.319586
 Total kinetic energy from orbitals= 1.281635490492D+03

 Test job not archived.
 1\1\GINC-BATAGIN1\SP\RB3LYP\6-31G(d,p)\C2H6O7P2(2-)\ORISON\08-Feb-2021
 \0\\#t B3LYP/6-31G(d,p) scrf=(solvent=water) # Gfinput IOP(6/7=3) Pop=
 hirshfeld Density Test # Units(Ang,Deg)\\eti-2dp-opt-g09.log\\-2,1\C,0
 ,0.03678,1.86311,0.81911\H,0,0.05643,1.53009,1.85991\H,0,-0.8391,2.498
 12,0.66358\C,0,0.00782,0.66901,-0.13618\O,0,-0.01905,1.18454,-1.48591\
 H,0,-0.56995,0.52705,-1.95789\P,0,-1.55686,-0.36208,0.02755\P,0,1.5499
 4,-0.37443,0.08434\O,0,-1.90524,-0.75366,-1.40151\O,0,1.52327,-1.53194
 ,-0.89046\O,0,2.72267,0.69693,-0.46658\O,0,-2.71715,0.76191,0.46197\O,
 0,-1.47189,-1.38812,1.13493\O,0,1.8452,-0.59649,1.55655\H,0,0.93711,2.
 45999,0.63867\H,0,3.1742,1.03141,0.3207\H,0,-2.745,0.82287,1.42718\\Ve
 rsion=EM64L-G16RevA.03\State=1-A\HF=-1289.5420667\RMSD=3.869e-09\Dipol
 e=-0.2806391,3.671782,1.2255647\Quadrupole=-6.8346929,2.8736559,3.9610
 37,1.6431912,-3.3200313,4.8495054\PG=C01 [X(C2H6O7P2)]\\@


 CHARLIE BROWN.."I CAN'T GET THAT STUPID KITE IN THE
 AIR... I CAN'T... I C A N N O T..."
 LUCY.."OH COME NOW CHARLIE BROWN...THAT'S NO WAY TO TALK...
 THE TROUBLE WITH YOU IS YOU DON'T BELIEVE IN YOURSELF... YOU
 DON'T BELIEVE IN YOUR OWN ABILITIES...  YOU'VE GOT TO SAY TO
 YOURSELF...'I BELIEVE I CAN FLY THIS KITE.'... GO AHEAD SAY
 IT...."
 CHARLIE BROWN.."I BELIEVE THAT I CAN FLY THIS STUPID
 KITE.....I BELIEVE THAT I CAN FLY THIS KITE........
 I  A C T U A L L Y  B E L I E V E  T H A T  I  C A N ******"
 LUCY.."I'LL BET YOU TEN-TO-ONE YOU'RE WRONG......."    SCHULZ
 Job cpu time:       0 days  0 hours  4 minutes 50.9 seconds.
 Elapsed time:       0 days  0 hours  0 minutes 36.6 seconds.
 File lengths (MBytes):  RWF=     69 Int=      0 D2E=      0 Chk=      4 Scr=      1
 Normal termination of Gaussian 16 at Mon Feb  8 14:42:15 2021.
