17
eti-2dp_neutral_scf_g09.log	Energy: -809199.8575218
C         -0.03678        1.86311       -0.81911
H         -0.05643        1.53009       -1.85991
H          0.83910        2.49812       -0.66358
C         -0.00782        0.66901        0.13618
O          0.01905        1.18454        1.48591
H          0.56995        0.52705        1.95789
P          1.55686       -0.36208       -0.02755
P         -1.54994       -0.37443       -0.08434
O          1.90524       -0.75366        1.40151
O         -1.52327       -1.53194        0.89046
O         -2.72267        0.69693        0.46658
O          2.71715        0.76191       -0.46197
O          1.47189       -1.38812       -1.13493
O         -1.84520       -0.59649       -1.55655
H         -0.93711        2.45999       -0.63867
H         -3.17420        1.03141       -0.32070
H          2.74500        0.82287       -1.42718
