 Entering Gaussian System, Link 0=g16
 Input=etidronate_cation_scf_g09.com
 Output=etidronate_cation_scf_g09.log
 Initial command:
 /usr/local//g16/l1.exe "/home/orison/scrgauss/Gau-21898.inp" -scrdir="/home/orison/scrgauss/"
 Entering Link 1 = /usr/local//g16/l1.exe PID=     21900.
  
 Copyright (c) 1988,1990,1992,1993,1995,1998,2003,2009,2016,
            Gaussian, Inc.  All Rights Reserved.
  
 This is part of the Gaussian(R) 16 program.  It is based on
 the Gaussian(R) 09 system (copyright 2009, Gaussian, Inc.),
 the Gaussian(R) 03 system (copyright 2003, Gaussian, Inc.),
 the Gaussian(R) 98 system (copyright 1998, Gaussian, Inc.),
 the Gaussian(R) 94 system (copyright 1995, Gaussian, Inc.),
 the Gaussian 92(TM) system (copyright 1992, Gaussian, Inc.),
 the Gaussian 90(TM) system (copyright 1990, Gaussian, Inc.),
 the Gaussian 88(TM) system (copyright 1988, Gaussian, Inc.),
 the Gaussian 86(TM) system (copyright 1986, Carnegie Mellon
 University), and the Gaussian 82(TM) system (copyright 1983,
 Carnegie Mellon University). Gaussian is a federally registered
 trademark of Gaussian, Inc.
  
 This software contains proprietary and confidential information,
 including trade secrets, belonging to Gaussian, Inc.
  
 This software is provided under written license and may be
 used, copied, transmitted, or stored only in accord with that
 written license.
  
 The following legend is applicable only to US Government
 contracts under FAR:
  
                    RESTRICTED RIGHTS LEGEND
  
 Use, reproduction and disclosure by the US Government is
 subject to restrictions as set forth in subparagraphs (a)
 and (c) of the Commercial Computer Software - Restricted
 Rights clause in FAR 52.227-19.
  
 Gaussian, Inc.
 340 Quinnipiac St., Bldg. 40, Wallingford CT 06492
  
  
 ---------------------------------------------------------------
 Warning -- This program may not be used in any manner that
 competes with the business of Gaussian, Inc. or will provide
 assistance to any competitor of Gaussian, Inc.  The licensee
 of this program is prohibited from giving any competitor of
 Gaussian, Inc. access to this program.  By using this program,
 the user acknowledges that Gaussian, Inc. is engaged in the
 business of creating and licensing software in the field of
 computational chemistry and represents and warrants to the
 licensee that it is not a competitor of Gaussian, Inc. and that
 it will not use this program in any manner prohibited above.
 ---------------------------------------------------------------
  

 Cite this work as:
 Gaussian 16, Revision A.03,
 M. J. Frisch, G. W. Trucks, H. B. Schlegel, G. E. Scuseria, 
 M. A. Robb, J. R. Cheeseman, G. Scalmani, V. Barone, 
 G. A. Petersson, H. Nakatsuji, X. Li, M. Caricato, A. V. Marenich, 
 J. Bloino, B. G. Janesko, R. Gomperts, B. Mennucci, H. P. Hratchian, 
 J. V. Ortiz, A. F. Izmaylov, J. L. Sonnenberg, D. Williams-Young, 
 F. Ding, F. Lipparini, F. Egidi, J. Goings, B. Peng, A. Petrone, 
 T. Henderson, D. Ranasinghe, V. G. Zakrzewski, J. Gao, N. Rega, 
 G. Zheng, W. Liang, M. Hada, M. Ehara, K. Toyota, R. Fukuda, 
 J. Hasegawa, M. Ishida, T. Nakajima, Y. Honda, O. Kitao, H. Nakai, 
 T. Vreven, K. Throssell, J. A. Montgomery, Jr., J. E. Peralta, 
 F. Ogliaro, M. J. Bearpark, J. J. Heyd, E. N. Brothers, K. N. Kudin, 
 V. N. Staroverov, T. A. Keith, R. Kobayashi, J. Normand, 
 K. Raghavachari, A. P. Rendell, J. C. Burant, S. S. Iyengar, 
 J. Tomasi, M. Cossi, J. M. Millam, M. Klene, C. Adamo, R. Cammi, 
 J. W. Ochterski, R. L. Martin, K. Morokuma, O. Farkas, 
 J. B. Foresman, and D. J. Fox, Gaussian, Inc., Wallingford CT, 2016.
 
 ******************************************
 Gaussian 16:  EM64L-G16RevA.03 25-Dec-2016
                22-Jan-2021 
 ******************************************
 %nproc=8
 Will use up to    8 processors via shared memory.
 %Mem=4GB
 ----------------------------------------------------------------------
 #t B3LYP/6-31G(d,p) # Gfinput IOP(6/7=3) Pop=hirshfeld Density Test # 
 Units(Ang,Deg)
 ----------------------------------------------------------------------
 ----------------------
 etidronate-opt-g09.log
 ----------------------
 Symbolic Z-matrix:
 Charge =  1 Multiplicity = 2
 C                    -0.0264    0.80416  -0.14419 
 C                    -0.00302   1.95251   0.87016 
 H                     0.01478   1.57511   1.8967 
 H                     0.87217   2.58124   0.69369 
 H                    -0.90857   2.54767   0.73747 
 O                    -0.01024   1.37999  -1.43643 
 H                    -0.12059   0.66428  -2.08173 
 P                     1.46432  -0.28297   0.09094 
 P                    -1.61343  -0.16664   0.10037 
 O                     1.70689  -0.82228  -1.40777 
 H                     2.23866  -1.63206  -1.42243 
 O                     2.75008   0.66831   0.34412 
 H                     3.0183    0.63789   1.27462 
 O                    -1.37276  -1.08775   1.38538 
 H                    -0.43907  -1.41309   1.45014 
 O                    -1.50828  -1.12954  -1.21896 
 H                    -2.39492  -1.31128  -1.56573 
 O                    -2.85196   0.64138   0.15505 
 O                     1.30284  -1.33083   1.15259 
 
                    Distance matrix (angstroms):
                    1          2          3          4          5
     1  C    0.000000
     2  C    1.532371   0.000000
     3  H    2.182038   1.093861   0.000000
     4  H    2.160436   1.091971   1.787358   0.000000
     5  H    2.143683   1.091716   1.772643   1.781594   0.000000
     6  O    1.414824   2.376592   3.338930   2.599819   2.626084
     7  H    1.944865   3.222889   4.083606   3.516143   3.480799
     8  P    1.859942   2.785254   2.968905   2.986243   3.749817
     9  P    1.876413   2.770703   2.985224   3.752477   2.875796
    10  O    2.691883   3.976458   4.419303   4.086177   4.774856
    11  H    3.563645   4.809391   5.123300   4.908885   5.660421
    12  O    2.822365   3.083091   3.273325   2.703340   4.131881
    13  H    3.363163   3.319667   3.207257   2.952958   4.399557
    14  O    2.780574   3.374140   3.045905   4.356562   3.721765
    15  H    2.761953   3.442932   3.055280   4.271562   4.051660
    16  O    2.662761   4.016125   4.397975   4.805690   4.208223
    17  H    3.479332   4.723036   5.111391   5.561526   4.733441
    18  O    2.846020   3.216660   3.481867   4.233478   2.783868
    19  O    2.829611   3.544765   3.264550   3.962368   4.483907
                    6          7          8          9         10
     6  O    0.000000
     7  H    0.969964   0.000000
     8  P    2.696780   2.851266   0.000000
     9  P    2.706296   2.771382   3.079962   0.000000
    10  O    2.792732   2.450258   1.611157   3.705250   0.000000
    11  H    3.759015   3.357665   2.170238   4.393742   0.968885
    12  O    3.360984   3.758392   1.619325   4.449357   2.525712
    13  H    4.131895   4.595477   2.159615   4.845519   3.323719
    14  O    3.988585   4.081469   3.220601   1.599255   4.166102
    15  H    4.039490   4.109866   2.597593   2.180513   3.622409
    16  O    2.930727   2.426488   3.356914   1.636724   3.235332
    17  H    3.598104   3.056415   4.323854   2.167214   4.133874
    18  O    3.339719   3.530452   4.414613   1.479812   5.036648
    19  O    3.971870   4.058010   1.500396   3.311667   2.641462
                   11         12         13         14         15
    11  H    0.000000
    12  O    2.945157   0.000000
    13  H    3.610345   0.968864   0.000000
    14  O    4.606780   4.600628   4.719270   0.000000
    15  H    3.933172   3.965625   4.023771   0.990867   0.000000
    16  O    3.785959   4.879458   5.461838   2.608198   2.889240
    17  H    4.646880   5.834152   6.416370   3.131106   3.595996
    18  O    5.794082   5.605294   5.976069   2.586819   3.423469
    19  O    2.756307   2.597054   2.614106   2.696686   1.769054
                   16         17         18         19
    16  O    0.000000
    17  H    0.969231   0.000000
    18  O    2.613338   2.642508   0.000000
    19  O    3.683363   4.589453   4.706066   0.000000
 Framework group  C1[X(C2H8O7P2)]
 Deg. of freedom    51
                         Standard orientation:                         
 ---------------------------------------------------------------------
 Center     Atomic      Atomic             Coordinates (Angstroms)
 Number     Number       Type             X           Y           Z
 ---------------------------------------------------------------------
      1          6           0        0.026403    0.804161    0.144190
      2          6           0        0.003026    1.952511   -0.870160
      3          1           0       -0.014775    1.575111   -1.896700
      4          1           0       -0.872163    2.581243   -0.693690
      5          1           0        0.908577    2.547669   -0.737470
      6          8           0        0.010244    1.379991    1.436430
      7          1           0        0.120593    0.664281    2.081730
      8         15           0       -1.464319   -0.282966   -0.090940
      9         15           0        1.613431   -0.166642   -0.100370
     10          8           0       -1.706890   -0.822275    1.407770
     11          1           0       -2.238662   -1.632054    1.422430
     12          8           0       -2.750077    0.668317   -0.344120
     13          1           0       -3.018297    0.637898   -1.274620
     14          8           0        1.372759   -1.087752   -1.385380
     15          1           0        0.439068   -1.413090   -1.450140
     16          8           0        1.508279   -1.129542    1.218960
     17          1           0        2.394919   -1.311284    1.565730
     18          8           0        2.851963    0.641375   -0.155050
     19          8           0       -1.302841   -1.330826   -1.152590
 ---------------------------------------------------------------------
 Rotational constants (GHZ):           1.3574319           0.6941555           0.6608461
 AO basis set in the form of general basis input (Overlap normalization):
      1 0
 S   6 1.00       0.000000000000
      0.3047524880D+04  0.1834737132D-02
      0.4573695180D+03  0.1403732281D-01
      0.1039486850D+03  0.6884262226D-01
      0.2921015530D+02  0.2321844432D+00
      0.9286662960D+01  0.4679413484D+00
      0.3163926960D+01  0.3623119853D+00
 SP   3 1.00       0.000000000000
      0.7868272350D+01 -0.1193324198D+00  0.6899906659D-01
      0.1881288540D+01 -0.1608541517D+00  0.3164239610D+00
      0.5442492580D+00  0.1143456438D+01  0.7443082909D+00
 SP   1 1.00       0.000000000000
      0.1687144782D+00  0.1000000000D+01  0.1000000000D+01
 D   1 1.00       0.000000000000
      0.8000000000D+00  0.1000000000D+01
 ****
      2 0
 S   6 1.00       0.000000000000
      0.3047524880D+04  0.1834737132D-02
      0.4573695180D+03  0.1403732281D-01
      0.1039486850D+03  0.6884262226D-01
      0.2921015530D+02  0.2321844432D+00
      0.9286662960D+01  0.4679413484D+00
      0.3163926960D+01  0.3623119853D+00
 SP   3 1.00       0.000000000000
      0.7868272350D+01 -0.1193324198D+00  0.6899906659D-01
      0.1881288540D+01 -0.1608541517D+00  0.3164239610D+00
      0.5442492580D+00  0.1143456438D+01  0.7443082909D+00
 SP   1 1.00       0.000000000000
      0.1687144782D+00  0.1000000000D+01  0.1000000000D+01
 D   1 1.00       0.000000000000
      0.8000000000D+00  0.1000000000D+01
 ****
      3 0
 S   3 1.00       0.000000000000
      0.1873113696D+02  0.3349460434D-01
      0.2825394365D+01  0.2347269535D+00
      0.6401216923D+00  0.8137573261D+00
 S   1 1.00       0.000000000000
      0.1612777588D+00  0.1000000000D+01
 P   1 1.00       0.000000000000
      0.1100000000D+01  0.1000000000D+01
 ****
      4 0
 S   3 1.00       0.000000000000
      0.1873113696D+02  0.3349460434D-01
      0.2825394365D+01  0.2347269535D+00
      0.6401216923D+00  0.8137573261D+00
 S   1 1.00       0.000000000000
      0.1612777588D+00  0.1000000000D+01
 P   1 1.00       0.000000000000
      0.1100000000D+01  0.1000000000D+01
 ****
      5 0
 S   3 1.00       0.000000000000
      0.1873113696D+02  0.3349460434D-01
      0.2825394365D+01  0.2347269535D+00
      0.6401216923D+00  0.8137573261D+00
 S   1 1.00       0.000000000000
      0.1612777588D+00  0.1000000000D+01
 P   1 1.00       0.000000000000
      0.1100000000D+01  0.1000000000D+01
 ****
      6 0
 S   6 1.00       0.000000000000
      0.5484671660D+04  0.1831074430D-02
      0.8252349460D+03  0.1395017220D-01
      0.1880469580D+03  0.6844507810D-01
      0.5296450000D+02  0.2327143360D+00
      0.1689757040D+02  0.4701928980D+00
      0.5799635340D+01  0.3585208530D+00
 SP   3 1.00       0.000000000000
      0.1553961625D+02 -0.1107775495D+00  0.7087426823D-01
      0.3599933586D+01 -0.1480262627D+00  0.3397528391D+00
      0.1013761750D+01  0.1130767015D+01  0.7271585773D+00
 SP   1 1.00       0.000000000000
      0.2700058226D+00  0.1000000000D+01  0.1000000000D+01
 D   1 1.00       0.000000000000
      0.8000000000D+00  0.1000000000D+01
 ****
      7 0
 S   3 1.00       0.000000000000
      0.1873113696D+02  0.3349460434D-01
      0.2825394365D+01  0.2347269535D+00
      0.6401216923D+00  0.8137573261D+00
 S   1 1.00       0.000000000000
      0.1612777588D+00  0.1000000000D+01
 P   1 1.00       0.000000000000
      0.1100000000D+01  0.1000000000D+01
 ****
      8 0
 S   6 1.00       0.000000000000
      0.1941330000D+05  0.1851598923D-02
      0.2909420000D+04  0.1420619174D-01
      0.6613640000D+03  0.6999945928D-01
      0.1857590000D+03  0.2400788603D+00
      0.5919430000D+02  0.4847617180D+00
      0.2003100000D+02  0.3351998050D+00
 SP   6 1.00       0.000000000000
      0.3394780000D+03 -0.2782170105D-02  0.4564616191D-02
      0.8101010000D+02 -0.3604990135D-01  0.3369357188D-01
      0.2587800000D+02 -0.1166310044D+00  0.1397548834D+00
      0.9452210000D+01  0.9683280364D-01  0.3393617168D+00
      0.3665660000D+01  0.6144180231D+00  0.4509206237D+00
      0.1467460000D+01  0.4037980152D+00  0.2385858009D+00
 SP   3 1.00       0.000000000000
      0.2156230000D+01 -0.2529241139D+00 -0.1776531273D-01
      0.7489970000D+00  0.3285184468D-01  0.2740581964D+00
      0.2831450000D+00  0.1081254762D+01  0.7854215630D+00
 SP   1 1.00       0.000000000000
      0.9983170000D-01  0.1000000000D+01  0.1000000000D+01
 D   1 1.00       0.000000000000
      0.5500000000D+00  0.1000000000D+01
 ****
      9 0
 S   6 1.00       0.000000000000
      0.1941330000D+05  0.1851598923D-02
      0.2909420000D+04  0.1420619174D-01
      0.6613640000D+03  0.6999945928D-01
      0.1857590000D+03  0.2400788603D+00
      0.5919430000D+02  0.4847617180D+00
      0.2003100000D+02  0.3351998050D+00
 SP   6 1.00       0.000000000000
      0.3394780000D+03 -0.2782170105D-02  0.4564616191D-02
      0.8101010000D+02 -0.3604990135D-01  0.3369357188D-01
      0.2587800000D+02 -0.1166310044D+00  0.1397548834D+00
      0.9452210000D+01  0.9683280364D-01  0.3393617168D+00
      0.3665660000D+01  0.6144180231D+00  0.4509206237D+00
      0.1467460000D+01  0.4037980152D+00  0.2385858009D+00
 SP   3 1.00       0.000000000000
      0.2156230000D+01 -0.2529241139D+00 -0.1776531273D-01
      0.7489970000D+00  0.3285184468D-01  0.2740581964D+00
      0.2831450000D+00  0.1081254762D+01  0.7854215630D+00
 SP   1 1.00       0.000000000000
      0.9983170000D-01  0.1000000000D+01  0.1000000000D+01
 D   1 1.00       0.000000000000
      0.5500000000D+00  0.1000000000D+01
 ****
     10 0
 S   6 1.00       0.000000000000
      0.5484671660D+04  0.1831074430D-02
      0.8252349460D+03  0.1395017220D-01
      0.1880469580D+03  0.6844507810D-01
      0.5296450000D+02  0.2327143360D+00
      0.1689757040D+02  0.4701928980D+00
      0.5799635340D+01  0.3585208530D+00
 SP   3 1.00       0.000000000000
      0.1553961625D+02 -0.1107775495D+00  0.7087426823D-01
      0.3599933586D+01 -0.1480262627D+00  0.3397528391D+00
      0.1013761750D+01  0.1130767015D+01  0.7271585773D+00
 SP   1 1.00       0.000000000000
      0.2700058226D+00  0.1000000000D+01  0.1000000000D+01
 D   1 1.00       0.000000000000
      0.8000000000D+00  0.1000000000D+01
 ****
     11 0
 S   3 1.00       0.000000000000
      0.1873113696D+02  0.3349460434D-01
      0.2825394365D+01  0.2347269535D+00
      0.6401216923D+00  0.8137573261D+00
 S   1 1.00       0.000000000000
      0.1612777588D+00  0.1000000000D+01
 P   1 1.00       0.000000000000
      0.1100000000D+01  0.1000000000D+01
 ****
     12 0
 S   6 1.00       0.000000000000
      0.5484671660D+04  0.1831074430D-02
      0.8252349460D+03  0.1395017220D-01
      0.1880469580D+03  0.6844507810D-01
      0.5296450000D+02  0.2327143360D+00
      0.1689757040D+02  0.4701928980D+00
      0.5799635340D+01  0.3585208530D+00
 SP   3 1.00       0.000000000000
      0.1553961625D+02 -0.1107775495D+00  0.7087426823D-01
      0.3599933586D+01 -0.1480262627D+00  0.3397528391D+00
      0.1013761750D+01  0.1130767015D+01  0.7271585773D+00
 SP   1 1.00       0.000000000000
      0.2700058226D+00  0.1000000000D+01  0.1000000000D+01
 D   1 1.00       0.000000000000
      0.8000000000D+00  0.1000000000D+01
 ****
     13 0
 S   3 1.00       0.000000000000
      0.1873113696D+02  0.3349460434D-01
      0.2825394365D+01  0.2347269535D+00
      0.6401216923D+00  0.8137573261D+00
 S   1 1.00       0.000000000000
      0.1612777588D+00  0.1000000000D+01
 P   1 1.00       0.000000000000
      0.1100000000D+01  0.1000000000D+01
 ****
     14 0
 S   6 1.00       0.000000000000
      0.5484671660D+04  0.1831074430D-02
      0.8252349460D+03  0.1395017220D-01
      0.1880469580D+03  0.6844507810D-01
      0.5296450000D+02  0.2327143360D+00
      0.1689757040D+02  0.4701928980D+00
      0.5799635340D+01  0.3585208530D+00
 SP   3 1.00       0.000000000000
      0.1553961625D+02 -0.1107775495D+00  0.7087426823D-01
      0.3599933586D+01 -0.1480262627D+00  0.3397528391D+00
      0.1013761750D+01  0.1130767015D+01  0.7271585773D+00
 SP   1 1.00       0.000000000000
      0.2700058226D+00  0.1000000000D+01  0.1000000000D+01
 D   1 1.00       0.000000000000
      0.8000000000D+00  0.1000000000D+01
 ****
     15 0
 S   3 1.00       0.000000000000
      0.1873113696D+02  0.3349460434D-01
      0.2825394365D+01  0.2347269535D+00
      0.6401216923D+00  0.8137573261D+00
 S   1 1.00       0.000000000000
      0.1612777588D+00  0.1000000000D+01
 P   1 1.00       0.000000000000
      0.1100000000D+01  0.1000000000D+01
 ****
     16 0
 S   6 1.00       0.000000000000
      0.5484671660D+04  0.1831074430D-02
      0.8252349460D+03  0.1395017220D-01
      0.1880469580D+03  0.6844507810D-01
      0.5296450000D+02  0.2327143360D+00
      0.1689757040D+02  0.4701928980D+00
      0.5799635340D+01  0.3585208530D+00
 SP   3 1.00       0.000000000000
      0.1553961625D+02 -0.1107775495D+00  0.7087426823D-01
      0.3599933586D+01 -0.1480262627D+00  0.3397528391D+00
      0.1013761750D+01  0.1130767015D+01  0.7271585773D+00
 SP   1 1.00       0.000000000000
      0.2700058226D+00  0.1000000000D+01  0.1000000000D+01
 D   1 1.00       0.000000000000
      0.8000000000D+00  0.1000000000D+01
 ****
     17 0
 S   3 1.00       0.000000000000
      0.1873113696D+02  0.3349460434D-01
      0.2825394365D+01  0.2347269535D+00
      0.6401216923D+00  0.8137573261D+00
 S   1 1.00       0.000000000000
      0.1612777588D+00  0.1000000000D+01
 P   1 1.00       0.000000000000
      0.1100000000D+01  0.1000000000D+01
 ****
     18 0
 S   6 1.00       0.000000000000
      0.5484671660D+04  0.1831074430D-02
      0.8252349460D+03  0.1395017220D-01
      0.1880469580D+03  0.6844507810D-01
      0.5296450000D+02  0.2327143360D+00
      0.1689757040D+02  0.4701928980D+00
      0.5799635340D+01  0.3585208530D+00
 SP   3 1.00       0.000000000000
      0.1553961625D+02 -0.1107775495D+00  0.7087426823D-01
      0.3599933586D+01 -0.1480262627D+00  0.3397528391D+00
      0.1013761750D+01  0.1130767015D+01  0.7271585773D+00
 SP   1 1.00       0.000000000000
      0.2700058226D+00  0.1000000000D+01  0.1000000000D+01
 D   1 1.00       0.000000000000
      0.8000000000D+00  0.1000000000D+01
 ****
     19 0
 S   6 1.00       0.000000000000
      0.5484671660D+04  0.1831074430D-02
      0.8252349460D+03  0.1395017220D-01
      0.1880469580D+03  0.6844507810D-01
      0.5296450000D+02  0.2327143360D+00
      0.1689757040D+02  0.4701928980D+00
      0.5799635340D+01  0.3585208530D+00
 SP   3 1.00       0.000000000000
      0.1553961625D+02 -0.1107775495D+00  0.7087426823D-01
      0.3599933586D+01 -0.1480262627D+00  0.3397528391D+00
      0.1013761750D+01  0.1130767015D+01  0.7271585773D+00
 SP   1 1.00       0.000000000000
      0.2700058226D+00  0.1000000000D+01  0.1000000000D+01
 D   1 1.00       0.000000000000
      0.8000000000D+00  0.1000000000D+01
 ****

   213 basis functions,   412 primitive gaussians,   213 cartesian basis functions
    53 alpha electrons       52 beta electrons
       nuclear repulsion energy      1023.6350291807 Hartrees.
 NAtoms=   19 NActive=   19 NUniq=   19 SFac= 1.00D+00 NAtFMM=   60 NAOKFM=F Big=F
 ExpMin= 9.98D-02 ExpMax= 1.94D+04 ExpMxC= 2.91D+03 IAcc=3 IRadAn=         5 AccDes= 0.00D+00
 Harris functional with IExCor=  402 and IRadAn=       5 diagonalized for initial guess.
 HarFok:  IExCor=  402 AccDes= 0.00D+00 IRadAn=         5 IDoV= 1 UseB2=F ITyADJ=14
 ICtDFT=  3500011 ScaDFX=  1.000000  1.000000  1.000000  1.000000
 FoFCou: FMM=F IPFlag=           0 FMFlag=      100000 FMFlg1=           0
         NFxFlg=           0 DoJE=T BraDBF=F KetDBF=T FulRan=T
         wScrn=  0.000000 ICntrl=       500 IOpCl=  0 I1Cent=   200000004 NGrid=           0
         NMat0=    1 NMatS0=      1 NMatT0=    0 NMatD0=    1 NMtDS0=    0 NMtDT0=    0
 Petite list used in FoFCou.
 Initial guess <Sx>= 0.0000 <Sy>= 0.0000 <Sz>= 0.5000 <S**2>= 0.7500 S= 0.5000
 Integral accuracy reduced to 1.0D-05 until final iterations.
 EnCoef did     2 forward-backward iterations
 Initial convergence to 1.0D-05 achieved.  Increase integral accuracy.
 SCF Done:  E(UB3LYP) =  -1290.10454992     A.U. after   32 cycles
            NFock= 32  Conv=0.40D-08     -V/T= 2.0062
 <Sx>= 0.0000 <Sy>= 0.0000 <Sz>= 0.5000 <S**2>= 0.7566 S= 0.5033
 <L.S>= 0.000000000000E+00
 Annihilation of the first spin contaminant:
 S**2 before annihilation     0.7566,   after     0.7500

 **********************************************************************

            Population analysis using the SCF density.

 **********************************************************************

 Orbital symmetries:
 Alpha Orbitals:
       Occupied  (A) (A) (A) (A) (A) (A) (A) (A) (A) (A) (A) (A)
                 (A) (A) (A) (A) (A) (A) (A) (A) (A) (A) (A) (A)
                 (A) (A) (A) (A) (A) (A) (A) (A) (A) (A) (A) (A)
                 (A) (A) (A) (A) (A) (A) (A) (A) (A) (A) (A) (A)
                 (A) (A) (A) (A) (A)
       Virtual   (A) (A) (A) (A) (A) (A) (A) (A) (A) (A) (A) (A)
                 (A) (A) (A) (A) (A) (A) (A) (A) (A) (A) (A) (A)
                 (A) (A) (A) (A) (A) (A) (A) (A) (A) (A) (A) (A)
                 (A) (A) (A) (A) (A) (A) (A) (A) (A) (A) (A) (A)
                 (A) (A) (A) (A) (A) (A) (A) (A) (A) (A) (A) (A)
                 (A) (A) (A) (A) (A) (A) (A) (A) (A) (A) (A) (A)
                 (A) (A) (A) (A) (A) (A) (A) (A) (A) (A) (A) (A)
                 (A) (A) (A) (A) (A) (A) (A) (A) (A) (A) (A) (A)
                 (A) (A) (A) (A) (A) (A) (A) (A) (A) (A) (A) (A)
                 (A) (A) (A) (A) (A) (A) (A) (A) (A) (A) (A) (A)
                 (A) (A) (A) (A) (A) (A) (A) (A) (A) (A) (A) (A)
                 (A) (A) (A) (A) (A) (A) (A) (A) (A) (A) (A) (A)
                 (A) (A) (A) (A) (A) (A) (A) (A) (A) (A) (A) (A)
                 (A) (A) (A) (A)
 Beta  Orbitals:
       Occupied  (A) (A) (A) (A) (A) (A) (A) (A) (A) (A) (A) (A)
                 (A) (A) (A) (A) (A) (A) (A) (A) (A) (A) (A) (A)
                 (A) (A) (A) (A) (A) (A) (A) (A) (A) (A) (A) (A)
                 (A) (A) (A) (A) (A) (A) (A) (A) (A) (A) (A) (A)
                 (A) (A) (A) (A)
       Virtual   (A) (A) (A) (A) (A) (A) (A) (A) (A) (A) (A) (A)
                 (A) (A) (A) (A) (A) (A) (A) (A) (A) (A) (A) (A)
                 (A) (A) (A) (A) (A) (A) (A) (A) (A) (A) (A) (A)
                 (A) (A) (A) (A) (A) (A) (A) (A) (A) (A) (A) (A)
                 (A) (A) (A) (A) (A) (A) (A) (A) (A) (A) (A) (A)
                 (A) (A) (A) (A) (A) (A) (A) (A) (A) (A) (A) (A)
                 (A) (A) (A) (A) (A) (A) (A) (A) (A) (A) (A) (A)
                 (A) (A) (A) (A) (A) (A) (A) (A) (A) (A) (A) (A)
                 (A) (A) (A) (A) (A) (A) (A) (A) (A) (A) (A) (A)
                 (A) (A) (A) (A) (A) (A) (A) (A) (A) (A) (A) (A)
                 (A) (A) (A) (A) (A) (A) (A) (A) (A) (A) (A) (A)
                 (A) (A) (A) (A) (A) (A) (A) (A) (A) (A) (A) (A)
                 (A) (A) (A) (A) (A) (A) (A) (A) (A) (A) (A) (A)
                 (A) (A) (A) (A) (A)
 The electronic state is 2-A.
 Alpha  occ. eigenvalues --  -77.44629 -77.43258 -19.44286 -19.38975 -19.38836
 Alpha  occ. eigenvalues --  -19.38403 -19.37127 -19.35183 -19.34220 -10.51131
 Alpha  occ. eigenvalues --  -10.38217  -6.89521  -6.88347  -5.05855  -5.05819
 Alpha  occ. eigenvalues --   -5.05769  -5.04676  -5.04658  -5.04539  -1.30835
 Alpha  occ. eigenvalues --   -1.27995  -1.27123  -1.23387  -1.22292  -1.19133
 Alpha  occ. eigenvalues --   -1.18174  -0.99905  -0.87892  -0.84956  -0.80847
 Alpha  occ. eigenvalues --   -0.77101  -0.74557  -0.74237  -0.72274  -0.67408
 Alpha  occ. eigenvalues --   -0.65972  -0.64691  -0.62876  -0.61464  -0.60854
 Alpha  occ. eigenvalues --   -0.60353  -0.59150  -0.59042  -0.57606  -0.57042
 Alpha  occ. eigenvalues --   -0.55580  -0.54725  -0.54547  -0.53351  -0.52101
 Alpha  occ. eigenvalues --   -0.51002  -0.50366  -0.50337
 Alpha virt. eigenvalues --   -0.17710  -0.15924  -0.13716  -0.12375  -0.10076
 Alpha virt. eigenvalues --   -0.08445  -0.07801  -0.07029  -0.06335  -0.04917
 Alpha virt. eigenvalues --   -0.03568  -0.02839  -0.01724   0.00651   0.01540
 Alpha virt. eigenvalues --    0.02881   0.04596   0.06826   0.13580   0.14960
 Alpha virt. eigenvalues --    0.17820   0.18888   0.21592   0.21943   0.23109
 Alpha virt. eigenvalues --    0.25542   0.30086   0.32448   0.35570   0.37811
 Alpha virt. eigenvalues --    0.38972   0.46405   0.50423   0.51783   0.54628
 Alpha virt. eigenvalues --    0.56307   0.57050   0.58601   0.59071   0.61250
 Alpha virt. eigenvalues --    0.63257   0.64401   0.65578   0.67763   0.68251
 Alpha virt. eigenvalues --    0.68454   0.70775   0.73048   0.74817   0.75405
 Alpha virt. eigenvalues --    0.76761   0.77284   0.78641   0.79399   0.80477
 Alpha virt. eigenvalues --    0.82636   0.83121   0.83696   0.84253   0.84760
 Alpha virt. eigenvalues --    0.88185   0.89681   0.93440   0.94727   0.96143
 Alpha virt. eigenvalues --    0.97615   0.98613   0.99981   1.05428   1.06745
 Alpha virt. eigenvalues --    1.09260   1.13335   1.15470   1.18843   1.20537
 Alpha virt. eigenvalues --    1.23467   1.26663   1.29881   1.32198   1.34350
 Alpha virt. eigenvalues --    1.36355   1.37672   1.38632   1.41803   1.44036
 Alpha virt. eigenvalues --    1.46599   1.46890   1.48763   1.52317   1.55241
 Alpha virt. eigenvalues --    1.57420   1.58214   1.59368   1.61391   1.62311
 Alpha virt. eigenvalues --    1.63887   1.65531   1.66423   1.68004   1.69375
 Alpha virt. eigenvalues --    1.76696   1.77836   1.81428   1.83471   1.85728
 Alpha virt. eigenvalues --    1.86589   1.87685   1.91899   1.93531   1.95036
 Alpha virt. eigenvalues --    1.97107   1.98763   2.10857   2.12237   2.13167
 Alpha virt. eigenvalues --    2.14756   2.17117   2.20275   2.22317   2.25750
 Alpha virt. eigenvalues --    2.28712   2.30402   2.31615   2.39360   2.41712
 Alpha virt. eigenvalues --    2.42422   2.43228   2.44230   2.45210   2.45482
 Alpha virt. eigenvalues --    2.50483   2.51450   2.52091   2.52603   2.57659
 Alpha virt. eigenvalues --    2.58711   2.63059   2.67596   2.68246   2.72095
 Alpha virt. eigenvalues --    2.78274   3.03445   3.15277   3.16151   3.17566
 Alpha virt. eigenvalues --    3.21605   3.24455   3.25810   3.26739   3.31108
 Alpha virt. eigenvalues --    3.34973   3.54516   3.72308   3.79366   3.82316
 Alpha virt. eigenvalues --    3.86192   3.98211   4.02779   4.11192   4.37715
  Beta  occ. eigenvalues --  -77.44602 -77.43270 -19.43465 -19.38865 -19.38791
  Beta  occ. eigenvalues --  -19.38334 -19.37008 -19.34442 -19.33956 -10.50889
  Beta  occ. eigenvalues --  -10.38229  -6.89488  -6.88359  -5.05844  -5.05771
  Beta  occ. eigenvalues --   -5.05709  -5.04701  -5.04659  -5.04552  -1.29493
  Beta  occ. eigenvalues --   -1.27506  -1.26573  -1.23180  -1.22030  -1.17909
  Beta  occ. eigenvalues --   -1.17231  -0.99039  -0.87462  -0.84159  -0.80462
  Beta  occ. eigenvalues --   -0.76766  -0.74326  -0.73951  -0.70899  -0.67059
  Beta  occ. eigenvalues --   -0.65330  -0.64258  -0.62633  -0.60820  -0.60060
  Beta  occ. eigenvalues --   -0.59356  -0.58788  -0.57608  -0.56796  -0.56403
  Beta  occ. eigenvalues --   -0.54607  -0.53909  -0.53053  -0.52607  -0.50625
  Beta  occ. eigenvalues --   -0.49896  -0.48960
  Beta virt. eigenvalues --   -0.42730  -0.17201  -0.15450  -0.13354  -0.11941
  Beta virt. eigenvalues --   -0.09540  -0.08044  -0.07429  -0.06631  -0.06142
  Beta virt. eigenvalues --   -0.04583  -0.03436  -0.02593  -0.01426   0.00815
  Beta virt. eigenvalues --    0.01689   0.03092   0.04760   0.07039   0.13677
  Beta virt. eigenvalues --    0.15075   0.18115   0.19002   0.21856   0.22052
  Beta virt. eigenvalues --    0.23250   0.25826   0.30296   0.32742   0.35884
  Beta virt. eigenvalues --    0.38034   0.39245   0.46565   0.50647   0.52011
  Beta virt. eigenvalues --    0.54749   0.56451   0.57245   0.58694   0.59376
  Beta virt. eigenvalues --    0.61663   0.63467   0.64617   0.65990   0.68097
  Beta virt. eigenvalues --    0.68436   0.68670   0.71246   0.73486   0.75030
  Beta virt. eigenvalues --    0.75506   0.77039   0.77507   0.78829   0.79577
  Beta virt. eigenvalues --    0.80981   0.83109   0.83408   0.84147   0.84669
  Beta virt. eigenvalues --    0.85395   0.88562   0.90209   0.93691   0.95111
  Beta virt. eigenvalues --    0.96397   0.97996   0.99299   1.00348   1.05960
  Beta virt. eigenvalues --    1.07072   1.09467   1.13633   1.16005   1.19084
  Beta virt. eigenvalues --    1.20834   1.23760   1.26858   1.30329   1.32552
  Beta virt. eigenvalues --    1.35083   1.36648   1.37766   1.38723   1.41994
  Beta virt. eigenvalues --    1.44328   1.46914   1.47119   1.48924   1.52648
  Beta virt. eigenvalues --    1.55590   1.58145   1.58769   1.60092   1.61971
  Beta virt. eigenvalues --    1.63273   1.64303   1.65903   1.66955   1.68831
  Beta virt. eigenvalues --    1.69794   1.77595   1.78614   1.81868   1.83601
  Beta virt. eigenvalues --    1.86207   1.87040   1.88080   1.92133   1.93769
  Beta virt. eigenvalues --    1.95591   1.97605   1.99023   2.10980   2.12425
  Beta virt. eigenvalues --    2.13598   2.15529   2.17865   2.20479   2.22449
  Beta virt. eigenvalues --    2.25988   2.28884   2.30698   2.31865   2.39578
  Beta virt. eigenvalues --    2.41782   2.42667   2.43299   2.44333   2.45435
  Beta virt. eigenvalues --    2.45563   2.50566   2.51557   2.52186   2.52718
  Beta virt. eigenvalues --    2.58065   2.59036   2.63415   2.67979   2.68368
  Beta virt. eigenvalues --    2.72216   2.78632   3.03529   3.15337   3.16191
  Beta virt. eigenvalues --    3.17619   3.21842   3.24601   3.25923   3.26815
  Beta virt. eigenvalues --    3.31183   3.35057   3.55212   3.72588   3.80013
  Beta virt. eigenvalues --    3.82570   3.86507   3.98626   4.02964   4.11664
  Beta virt. eigenvalues --    4.37836
     Alpha Molecular Orbital Coefficients:
                           1         2         3         4         5
                           O         O         O         O         O
     Eigenvalues --   -77.44629 -77.43258 -19.44286 -19.38975 -19.38836
   1 1   C  1S         -0.00004  -0.00004  -0.00002  -0.00002  -0.00004
   2        2S         -0.00004  -0.00005   0.00013  -0.00016  -0.00023
   3        2PX        -0.00004   0.00004   0.00000  -0.00002   0.00005
   4        2PY        -0.00001  -0.00002   0.00020  -0.00002  -0.00005
   5        2PZ        -0.00000   0.00000   0.00030  -0.00006   0.00006
   6        3S          0.00096   0.00093  -0.00094   0.00089   0.00180
   7        3PX        -0.00047   0.00041  -0.00006  -0.00030  -0.00100
   8        3PY        -0.00014  -0.00012  -0.00075  -0.00010   0.00036
   9        3PZ         0.00005   0.00001  -0.00086   0.00014   0.00021
  10        4XX        -0.00014  -0.00013   0.00002   0.00004  -0.00003
  11        4YY        -0.00011  -0.00009   0.00006  -0.00002  -0.00000
  12        4ZZ        -0.00007  -0.00007   0.00016  -0.00002   0.00002
  13        4XY        -0.00004   0.00003  -0.00000   0.00002   0.00003
  14        4XZ        -0.00002   0.00002  -0.00000   0.00001   0.00001
  15        4YZ        -0.00000   0.00001   0.00011  -0.00000   0.00001
  16 2   C  1S         -0.00001  -0.00002   0.00001   0.00000   0.00001
  17        2S         -0.00002  -0.00005   0.00010  -0.00002   0.00007
  18        2PX         0.00002  -0.00003   0.00001  -0.00002   0.00002
  19        2PY         0.00003   0.00004   0.00003  -0.00001   0.00002
  20        2PZ        -0.00002  -0.00002   0.00009   0.00001  -0.00004
  21        3S          0.00002   0.00011   0.00023   0.00003  -0.00062
  22        3PX         0.00001   0.00006  -0.00006   0.00001   0.00005
  23        3PY         0.00014   0.00008  -0.00032   0.00003   0.00016
  24        3PZ        -0.00012  -0.00012  -0.00038  -0.00005  -0.00025
  25        4XX        -0.00002  -0.00002   0.00002   0.00005   0.00002
  26        4YY        -0.00004  -0.00005   0.00000   0.00003   0.00000
  27        4ZZ        -0.00003  -0.00005  -0.00008  -0.00000  -0.00001
  28        4XY        -0.00000   0.00000   0.00000   0.00001  -0.00002
  29        4XZ         0.00002  -0.00001   0.00000   0.00000   0.00002
  30        4YZ         0.00001   0.00001   0.00000   0.00000   0.00002
  31 3   H  1S          0.00001   0.00000  -0.00005  -0.00002   0.00005
  32        2S         -0.00019  -0.00020  -0.00030   0.00006  -0.00013
  33        3PX         0.00002  -0.00003   0.00000  -0.00001  -0.00000
  34        3PY         0.00002   0.00002   0.00002  -0.00000  -0.00000
  35        3PZ        -0.00002  -0.00002  -0.00001   0.00001  -0.00000
  36 4   H  1S          0.00001  -0.00000   0.00007   0.00006   0.00000
  37        2S         -0.00019   0.00004   0.00008  -0.00004   0.00014
  38        3PX         0.00001   0.00001  -0.00000  -0.00003  -0.00000
  39        3PY         0.00004  -0.00001   0.00000  -0.00000  -0.00001
  40        3PZ        -0.00001   0.00001   0.00005   0.00002   0.00000
  41 5   H  1S         -0.00001  -0.00001   0.00006  -0.00001   0.00002
  42        2S          0.00001  -0.00023   0.00016  -0.00004   0.00004
  43        3PX        -0.00000  -0.00001   0.00000   0.00001  -0.00000
  44        3PY        -0.00001   0.00004  -0.00001   0.00001  -0.00001
  45        3PZ         0.00001  -0.00001   0.00006   0.00001   0.00001
  46 6   O  1S          0.00000  -0.00000   0.99269  -0.00008  -0.00000
  47        2S          0.00002   0.00000   0.02605  -0.00016   0.00005
  48        2PX         0.00000   0.00000   0.00010   0.00006   0.00000
  49        2PY         0.00002   0.00002  -0.00107   0.00003  -0.00005
  50        2PZ         0.00001   0.00001  -0.00008   0.00002  -0.00003
  51        3S         -0.00028  -0.00017   0.01227   0.00050  -0.00026
  52        3PX         0.00008  -0.00010   0.00001  -0.00025  -0.00004
  53        3PY         0.00005  -0.00001  -0.00020  -0.00006   0.00007
  54        3PZ         0.00013   0.00014  -0.00042  -0.00009   0.00041
  55        4XX         0.00001  -0.00001  -0.00811  -0.00010   0.00007
  56        4YY         0.00001   0.00000  -0.00817  -0.00016   0.00003
  57        4ZZ        -0.00000  -0.00002  -0.00822  -0.00015  -0.00002
  58        4XY         0.00003  -0.00003  -0.00000   0.00003   0.00000
  59        4XZ        -0.00002   0.00002   0.00000   0.00001  -0.00002
  60        4YZ        -0.00000  -0.00001  -0.00010   0.00002  -0.00003
  61 7   H  1S         -0.00001  -0.00003   0.00030  -0.00002   0.00011
  62        2S         -0.00013  -0.00018  -0.00130   0.00013  -0.00042
  63        3PX         0.00002  -0.00002   0.00002   0.00002   0.00003
  64        3PY         0.00002   0.00002  -0.00011   0.00003  -0.00004
  65        3PZ         0.00003   0.00004   0.00018  -0.00002   0.00003
  66 8   P  1S          0.99625   0.00011   0.00000   0.00001   0.00001
  67        2S          0.01418   0.00000   0.00004  -0.00003  -0.00000
  68        2PX         0.00001   0.00001  -0.00000   0.00005  -0.00000
  69        2PY         0.00003   0.00001  -0.00000  -0.00004   0.00002
  70        2PZ         0.00003  -0.00000  -0.00000   0.00000  -0.00006
  71        3S         -0.02723   0.00009   0.00027   0.00021   0.00036
  72        3PX        -0.00012  -0.00008   0.00010  -0.00009   0.00008
  73        3PY        -0.00009  -0.00006   0.00004   0.00015   0.00001
  74        3PZ        -0.00002   0.00002   0.00006   0.00003   0.00017
  75        4S          0.00280  -0.00011  -0.00097  -0.00254  -0.00340
  76        4PX         0.00021  -0.00012  -0.00009   0.00114  -0.00093
  77        4PY        -0.00002   0.00010  -0.00063  -0.00144  -0.00043
  78        4PZ        -0.00017   0.00003  -0.00019  -0.00110  -0.00192
  79        5XX         0.00942  -0.00009  -0.00004   0.00016  -0.00004
  80        5YY         0.00947  -0.00001   0.00002   0.00009  -0.00008
  81        5ZZ         0.00949  -0.00001  -0.00001  -0.00012   0.00023
  82        5XY        -0.00003  -0.00002   0.00003  -0.00018  -0.00000
  83        5XZ        -0.00002  -0.00001   0.00000   0.00007  -0.00006
  84        5YZ         0.00002   0.00000  -0.00001  -0.00003  -0.00017
  85 9   P  1S         -0.00011   0.99625   0.00000   0.00000  -0.00000
  86        2S         -0.00002   0.01417   0.00002   0.00003  -0.00006
  87        2PX        -0.00001  -0.00003   0.00000   0.00000   0.00000
  88        2PY         0.00001  -0.00001  -0.00001  -0.00000   0.00000
  89        2PZ         0.00000   0.00001   0.00001   0.00000   0.00000
  90        3S          0.00004  -0.02723   0.00016   0.00013  -0.00022
  91        3PX         0.00009   0.00011  -0.00010  -0.00002   0.00002
  92        3PY        -0.00007  -0.00008   0.00006   0.00002  -0.00003
  93        3PZ         0.00000  -0.00004  -0.00001  -0.00002  -0.00003
  94        4S          0.00019   0.00287  -0.00070  -0.00050   0.00149
  95        4PX        -0.00008  -0.00026   0.00014   0.00039  -0.00083
  96        4PY         0.00002  -0.00004  -0.00034   0.00023  -0.00017
  97        4PZ         0.00005   0.00003  -0.00015  -0.00005   0.00014
  98        5XX        -0.00012   0.00942  -0.00003   0.00001  -0.00003
  99        5YY        -0.00002   0.00946   0.00003   0.00001  -0.00004
 100        5ZZ        -0.00002   0.00947  -0.00002   0.00000  -0.00005
 101        5XY         0.00002   0.00003  -0.00003  -0.00000   0.00001
 102        5XZ         0.00000  -0.00000   0.00001   0.00000   0.00000
 103        5YZ        -0.00000  -0.00001   0.00000  -0.00000   0.00000
 104 10  O  1S         -0.00001   0.00001  -0.00001   0.00067   0.99269
 105        2S         -0.00008   0.00004  -0.00009  -0.00018   0.02580
 106        2PX         0.00001   0.00001  -0.00001   0.00001  -0.00040
 107        2PY        -0.00001   0.00000   0.00000  -0.00004  -0.00052
 108        2PZ         0.00009  -0.00001  -0.00002  -0.00003  -0.00070
 109        3S          0.00088  -0.00017   0.00048   0.00124   0.01269
 110        3PX        -0.00009  -0.00005   0.00007   0.00002   0.00036
 111        3PY        -0.00000  -0.00005   0.00010   0.00045   0.00046
 112        3PZ        -0.00037   0.00006   0.00004  -0.00016  -0.00028
 113        4XX        -0.00004   0.00004  -0.00004  -0.00016  -0.00823
 114        4YY        -0.00003   0.00007  -0.00006  -0.00014  -0.00824
 115        4ZZ        -0.00026   0.00004  -0.00008  -0.00013  -0.00828
 116        4XY         0.00002   0.00001  -0.00001   0.00002  -0.00002
 117        4XZ         0.00005   0.00001   0.00001  -0.00003  -0.00001
 118        4YZ         0.00009   0.00001  -0.00001   0.00000   0.00002
 119 11  H  1S         -0.00010  -0.00003   0.00001   0.00003   0.00043
 120        2S         -0.00019   0.00000  -0.00005   0.00028  -0.00091
 121        3PX        -0.00000  -0.00001  -0.00000   0.00001  -0.00003
 122        3PY        -0.00000  -0.00002   0.00001   0.00004  -0.00004
 123        3PZ        -0.00000  -0.00001  -0.00000  -0.00003   0.00004
 124 12  O  1S         -0.00001   0.00000  -0.00001   0.99270  -0.00075
 125        2S         -0.00008   0.00000  -0.00019   0.02584  -0.00013
 126        2PX        -0.00006  -0.00001  -0.00004   0.00038   0.00000
 127        2PY         0.00006  -0.00000  -0.00001  -0.00044  -0.00005
 128        2PZ         0.00001   0.00000  -0.00002  -0.00084  -0.00001
 129        3S          0.00090  -0.00003   0.00086   0.01244   0.00078
 130        3PX         0.00023   0.00003   0.00028   0.00034   0.00017
 131        3PY        -0.00026   0.00000  -0.00001  -0.00012   0.00011
 132        3PZ        -0.00010  -0.00001   0.00017   0.00049   0.00019
 133        4XX        -0.00021   0.00001  -0.00012  -0.00821  -0.00004
 134        4YY        -0.00013  -0.00000  -0.00015  -0.00821  -0.00010
 135        4ZZ         0.00002  -0.00001  -0.00018  -0.00819  -0.00013
 136        4XY         0.00013  -0.00001  -0.00000   0.00004   0.00002
 137        4XZ        -0.00001  -0.00000   0.00001   0.00001   0.00000
 138        4YZ         0.00003   0.00000  -0.00000  -0.00001   0.00005
 139 13  H  1S         -0.00010  -0.00000   0.00003   0.00042   0.00006
 140        2S         -0.00024  -0.00000   0.00010  -0.00095  -0.00025
 141        3PX         0.00000  -0.00000   0.00000  -0.00006  -0.00001
 142        3PY        -0.00000   0.00000   0.00000   0.00003   0.00002
 143        3PZ        -0.00001   0.00000   0.00004  -0.00008   0.00002
 144 14  O  1S          0.00000  -0.00000   0.00000   0.00001  -0.00002
 145        2S          0.00003  -0.00003   0.00002  -0.00005   0.00012
 146        2PX        -0.00000  -0.00000  -0.00000  -0.00000  -0.00000
 147        2PY         0.00001  -0.00005   0.00000   0.00001   0.00000
 148        2PZ         0.00001  -0.00008   0.00001  -0.00001   0.00001
 149        3S         -0.00008   0.00063  -0.00006   0.00033  -0.00064
 150        3PX         0.00004  -0.00001  -0.00000  -0.00003   0.00006
 151        3PY        -0.00007   0.00017   0.00001  -0.00004  -0.00005
 152        3PZ        -0.00007   0.00028  -0.00003   0.00006  -0.00014
 153        4XX        -0.00000   0.00003   0.00002  -0.00004   0.00009
 154        4YY         0.00002  -0.00008   0.00003  -0.00004   0.00008
 155        4ZZ         0.00001  -0.00017   0.00002  -0.00003   0.00007
 156        4XY         0.00001  -0.00001   0.00001   0.00000   0.00000
 157        4XZ         0.00001  -0.00003   0.00000   0.00000   0.00000
 158        4YZ        -0.00001  -0.00014  -0.00001  -0.00001   0.00001
 159 15  H  1S          0.00000  -0.00004   0.00001  -0.00001   0.00002
 160        2S         -0.00019  -0.00019  -0.00005  -0.00016  -0.00005
 161        3PX         0.00001   0.00000  -0.00001  -0.00002   0.00001
 162        3PY         0.00000   0.00000  -0.00000  -0.00001   0.00000
 163        3PZ        -0.00001  -0.00000   0.00000  -0.00001   0.00001
 164 16  O  1S          0.00002  -0.00000  -0.00002   0.00003  -0.00019
 165        2S          0.00009  -0.00003  -0.00012  -0.00006   0.00006
 166        2PX        -0.00002  -0.00004   0.00002   0.00000   0.00002
 167        2PY         0.00001  -0.00004  -0.00003   0.00000  -0.00001
 168        2PZ        -0.00001   0.00005  -0.00002   0.00001  -0.00001
 169        3S         -0.00035   0.00065   0.00049   0.00034  -0.00047
 170        3PX         0.00014   0.00026  -0.00014  -0.00002  -0.00007
 171        3PY        -0.00007   0.00017   0.00021   0.00001  -0.00000
 172        3PZ         0.00009  -0.00020   0.00002  -0.00008   0.00013
 173        4XX         0.00007   0.00005  -0.00010  -0.00004   0.00007
 174        4YY         0.00007  -0.00011  -0.00007  -0.00005   0.00004
 175        4ZZ         0.00007  -0.00017  -0.00009  -0.00003   0.00003
 176        4XY         0.00001  -0.00002  -0.00001  -0.00001  -0.00001
 177        4XZ        -0.00000   0.00004  -0.00001   0.00000  -0.00001
 178        4YZ         0.00001   0.00013   0.00000   0.00000  -0.00001
 179 17  H  1S         -0.00003  -0.00012   0.00001  -0.00001   0.00003
 180        2S         -0.00003  -0.00022   0.00006   0.00001  -0.00001
 181        3PX         0.00002   0.00002  -0.00002  -0.00000   0.00001
 182        3PY        -0.00000   0.00000  -0.00001   0.00000  -0.00001
 183        3PZ         0.00000  -0.00001  -0.00002   0.00000  -0.00001
 184 18  O  1S         -0.00000  -0.00000  -0.00002  -0.00001   0.00001
 185        2S         -0.00001  -0.00010  -0.00014   0.00004  -0.00002
 186        2PX         0.00000   0.00016   0.00003   0.00001  -0.00002
 187        2PY        -0.00000   0.00012  -0.00001  -0.00000   0.00001
 188        2PZ         0.00000  -0.00000  -0.00001  -0.00000   0.00001
 189        3S          0.00001   0.00073   0.00065  -0.00021   0.00011
 190        3PX        -0.00001  -0.00034  -0.00020  -0.00002   0.00008
 191        3PY        -0.00001  -0.00028   0.00001   0.00001  -0.00002
 192        3PZ        -0.00001   0.00001   0.00006   0.00001  -0.00003
 193        4XX        -0.00000  -0.00015  -0.00008   0.00003  -0.00002
 194        4YY        -0.00000  -0.00004  -0.00011   0.00003  -0.00002
 195        4ZZ        -0.00001   0.00003  -0.00011   0.00003  -0.00002
 196        4XY         0.00001  -0.00012   0.00000  -0.00000  -0.00000
 197        4XZ         0.00000   0.00001  -0.00001  -0.00000   0.00000
 198        4YZ         0.00000   0.00000   0.00000  -0.00000   0.00000
 199 19  O  1S          0.00001  -0.00000   0.00001  -0.00003  -0.00005
 200        2S         -0.00003   0.00000   0.00003   0.00010  -0.00000
 201        2PX         0.00001   0.00000  -0.00001   0.00001  -0.00004
 202        2PY        -0.00012   0.00001  -0.00001   0.00000   0.00003
 203        2PZ        -0.00013   0.00000   0.00001   0.00002  -0.00003
 204        3S          0.00042   0.00005  -0.00016  -0.00049   0.00003
 205        3PX        -0.00003  -0.00001   0.00002  -0.00013   0.00017
 206        3PY         0.00023  -0.00004   0.00006   0.00009  -0.00001
 207        3PZ         0.00027  -0.00002  -0.00004   0.00000   0.00035
 208        4XX         0.00007  -0.00002   0.00003   0.00008   0.00003
 209        4YY        -0.00008  -0.00001   0.00004   0.00009   0.00001
 210        4ZZ        -0.00007  -0.00001   0.00003   0.00009   0.00006
 211        4XY         0.00002  -0.00001  -0.00001   0.00001   0.00000
 212        4XZ         0.00001  -0.00001  -0.00000  -0.00003   0.00001
 213        4YZ        -0.00015  -0.00001  -0.00000   0.00002   0.00004
                           6         7         8         9        10
                           O         O         O         O         O
     Eigenvalues --   -19.38403 -19.37127 -19.35183 -19.34220 -10.51131
   1 1   C  1S         -0.00004   0.00000  -0.00001   0.00001   0.99316
   2        2S         -0.00021  -0.00003  -0.00007  -0.00001   0.05030
   3        2PX         0.00000   0.00003   0.00000  -0.00003  -0.00001
   4        2PY        -0.00003  -0.00001  -0.00006   0.00001   0.00005
   5        2PZ         0.00007   0.00001  -0.00003   0.00003   0.00065
   6        3S          0.00163   0.00002   0.00016  -0.00023  -0.01972
   7        3PX         0.00050   0.00025   0.00002  -0.00011   0.00013
   8        3PY        -0.00032  -0.00027   0.00030  -0.00053  -0.00100
   9        3PZ        -0.00069   0.00006   0.00003  -0.00020   0.00012
  10        4XX        -0.00003   0.00004   0.00005   0.00005  -0.00875
  11        4YY         0.00000   0.00002  -0.00000   0.00004  -0.00886
  12        4ZZ        -0.00006   0.00001  -0.00000   0.00001  -0.00865
  13        4XY        -0.00002  -0.00005  -0.00000   0.00005  -0.00001
  14        4XZ        -0.00002   0.00000  -0.00002   0.00000  -0.00001
  15        4YZ        -0.00000   0.00003  -0.00000   0.00002   0.00007
  16 2   C  1S          0.00001  -0.00003  -0.00001  -0.00002   0.00073
  17        2S          0.00006  -0.00011  -0.00004  -0.00008  -0.00028
  18        2PX        -0.00001  -0.00006  -0.00002   0.00005  -0.00001
  19        2PY         0.00001   0.00004   0.00003   0.00004  -0.00010
  20        2PZ        -0.00003   0.00001   0.00001   0.00001  -0.00003
  21        3S         -0.00053   0.00049  -0.00002   0.00043   0.00530
  22        3PX         0.00004   0.00045   0.00025  -0.00040   0.00007
  23        3PY         0.00037  -0.00039  -0.00016  -0.00024  -0.00103
  24        3PZ         0.00003   0.00006  -0.00011   0.00027   0.00182
  25        4XX         0.00002  -0.00006   0.00001  -0.00006  -0.00010
  26        4YY        -0.00002  -0.00003  -0.00000  -0.00004  -0.00024
  27        4ZZ         0.00001  -0.00004  -0.00003  -0.00003  -0.00020
  28        4XY         0.00001   0.00000  -0.00000  -0.00001   0.00000
  29        4XZ        -0.00001   0.00000   0.00001  -0.00000  -0.00001
  30        4YZ         0.00001  -0.00001  -0.00000  -0.00002   0.00012
  31 3   H  1S          0.00006  -0.00006  -0.00005  -0.00007  -0.00003
  32        2S          0.00013   0.00005   0.00003   0.00027  -0.00029
  33        3PX         0.00000  -0.00001  -0.00001   0.00001   0.00000
  34        3PY        -0.00001  -0.00000   0.00001  -0.00000   0.00002
  35        3PZ         0.00001   0.00000   0.00001   0.00002  -0.00000
  36 4   H  1S          0.00001   0.00003   0.00004  -0.00004  -0.00021
  37        2S          0.00001   0.00030   0.00012  -0.00024  -0.00046
  38        3PX        -0.00001   0.00002   0.00001   0.00001  -0.00000
  39        3PY        -0.00002  -0.00002   0.00000   0.00003  -0.00004
  40        3PZ         0.00000  -0.00001  -0.00000  -0.00001   0.00001
  41 5   H  1S          0.00002  -0.00007   0.00001   0.00002  -0.00021
  42        2S         -0.00015  -0.00009   0.00005   0.00025  -0.00044
  43        3PX         0.00001  -0.00002   0.00002  -0.00002   0.00000
  44        3PY         0.00000   0.00002  -0.00001  -0.00002  -0.00005
  45        3PZ        -0.00000  -0.00000   0.00002  -0.00001   0.00002
  46 6   O  1S         -0.00005   0.00001  -0.00004   0.00001  -0.00014
  47        2S         -0.00017   0.00004  -0.00011   0.00003  -0.00038
  48        2PX        -0.00000   0.00002  -0.00004  -0.00003  -0.00001
  49        2PY        -0.00001  -0.00001   0.00002  -0.00002   0.00007
  50        2PZ        -0.00001  -0.00001   0.00001  -0.00001   0.00011
  51        3S          0.00090  -0.00014   0.00038   0.00005   0.00361
  52        3PX         0.00005  -0.00007   0.00014   0.00010   0.00004
  53        3PY        -0.00017   0.00005  -0.00009   0.00005  -0.00017
  54        3PZ         0.00002   0.00005  -0.00003  -0.00004  -0.00070
  55        4XX        -0.00009   0.00004  -0.00007   0.00003  -0.00012
  56        4YY        -0.00007   0.00003  -0.00010   0.00003  -0.00034
  57        4ZZ        -0.00011   0.00003  -0.00011   0.00005  -0.00068
  58        4XY        -0.00002  -0.00001  -0.00000   0.00000   0.00001
  59        4XZ         0.00002   0.00001  -0.00001  -0.00000   0.00001
  60        4YZ        -0.00001  -0.00001   0.00002  -0.00001  -0.00028
  61 7   H  1S          0.00001   0.00002  -0.00006   0.00002   0.00007
  62        2S         -0.00028  -0.00010   0.00006  -0.00010  -0.00023
  63        3PX        -0.00002   0.00001  -0.00002  -0.00001  -0.00002
  64        3PY        -0.00002  -0.00000   0.00002  -0.00000  -0.00004
  65        3PZ         0.00005   0.00001  -0.00001   0.00002  -0.00013
  66 8   P  1S         -0.00000  -0.00000   0.00000   0.00002   0.00001
  67        2S         -0.00004  -0.00003   0.00006  -0.00005  -0.00006
  68        2PX        -0.00001   0.00000  -0.00001  -0.00000  -0.00002
  69        2PY         0.00001   0.00001  -0.00000  -0.00001  -0.00003
  70        2PZ        -0.00002   0.00001   0.00000   0.00001  -0.00001
  71        3S         -0.00013  -0.00027   0.00023   0.00087   0.00008
  72        3PX         0.00003  -0.00006   0.00010   0.00006   0.00041
  73        3PY        -0.00001  -0.00010   0.00006  -0.00004   0.00037
  74        3PZ         0.00015  -0.00005  -0.00000  -0.00018   0.00004
  75        4S          0.00035   0.00118  -0.00114  -0.00332   0.00397
  76        4PX         0.00017   0.00060  -0.00078  -0.00059   0.00078
  77        4PY         0.00006  -0.00035   0.00041   0.00118   0.00197
  78        4PZ        -0.00007   0.00010  -0.00023   0.00144   0.00049
  79        5XX         0.00002   0.00002   0.00006  -0.00026   0.00003
  80        5YY        -0.00007   0.00004   0.00005  -0.00014   0.00004
  81        5ZZ        -0.00006   0.00008   0.00001  -0.00018  -0.00006
  82        5XY        -0.00005  -0.00000   0.00000   0.00004  -0.00000
  83        5XZ         0.00006  -0.00003   0.00002   0.00000  -0.00003
  84        5YZ        -0.00001   0.00004   0.00001   0.00013   0.00008
  85 9   P  1S          0.00001   0.00001   0.00001  -0.00000   0.00000
  86        2S          0.00001  -0.00001  -0.00013  -0.00004  -0.00008
  87        2PX         0.00003   0.00002   0.00001  -0.00001   0.00002
  88        2PY         0.00003   0.00003   0.00000   0.00000  -0.00003
  89        2PZ        -0.00005   0.00005  -0.00000   0.00001  -0.00000
  90        3S          0.00036   0.00039   0.00059  -0.00030   0.00001
  91        3PX        -0.00019  -0.00020   0.00012   0.00008  -0.00036
  92        3PY        -0.00002  -0.00006   0.00011  -0.00004   0.00039
  93        3PZ         0.00011  -0.00018   0.00002  -0.00008   0.00006
  94        4S         -0.00348  -0.00321  -0.00161   0.00090   0.00419
  95        4PX         0.00194   0.00062  -0.00245  -0.00053  -0.00164
  96        4PY         0.00102   0.00065  -0.00184  -0.00032   0.00083
  97        4PZ        -0.00081   0.00130  -0.00000   0.00008   0.00055
  98        5XX        -0.00004  -0.00009  -0.00022   0.00000  -0.00002
  99        5YY         0.00003   0.00005  -0.00023   0.00002   0.00003
 100        5ZZ         0.00013   0.00016  -0.00029   0.00005  -0.00008
 101        5XY         0.00000  -0.00003   0.00003   0.00002  -0.00003
 102        5XZ        -0.00004   0.00009   0.00000   0.00001  -0.00001
 103        5YZ        -0.00023   0.00021   0.00002   0.00004   0.00006
 104 10  O  1S          0.00020   0.00008  -0.00004   0.00005   0.00004
 105        2S         -0.00003   0.00013  -0.00012  -0.00005   0.00018
 106        2PX         0.00000   0.00002  -0.00002  -0.00003  -0.00006
 107        2PY        -0.00001  -0.00001   0.00001   0.00003  -0.00002
 108        2PZ        -0.00000  -0.00003   0.00003   0.00002   0.00003
 109        3S          0.00008  -0.00062   0.00059   0.00021  -0.00116
 110        3PX         0.00004  -0.00016   0.00015   0.00017   0.00016
 111        3PY         0.00005  -0.00002   0.00002  -0.00011  -0.00009
 112        3PZ         0.00001   0.00020  -0.00018  -0.00031   0.00003
 113        4XX         0.00001   0.00010  -0.00009   0.00000   0.00014
 114        4YY        -0.00002   0.00011  -0.00008  -0.00004   0.00007
 115        4ZZ        -0.00001   0.00007  -0.00006   0.00004   0.00014
 116        4XY         0.00000   0.00000  -0.00000  -0.00000   0.00008
 117        4XZ         0.00001   0.00002  -0.00002  -0.00002  -0.00002
 118        4YZ         0.00000  -0.00000   0.00001  -0.00002   0.00000
 119 11  H  1S          0.00001   0.00001  -0.00002  -0.00003   0.00006
 120        2S          0.00002  -0.00012   0.00012   0.00025   0.00023
 121        3PX         0.00000  -0.00001   0.00001   0.00000   0.00000
 122        3PY        -0.00000  -0.00002   0.00001   0.00001   0.00001
 123        3PZ         0.00000  -0.00000   0.00000  -0.00003  -0.00002
 124 12  O  1S         -0.00005  -0.00003   0.00003   0.00005   0.00006
 125        2S         -0.00001  -0.00003   0.00005  -0.00003   0.00028
 126        2PX        -0.00000   0.00000  -0.00001   0.00000   0.00002
 127        2PY         0.00000   0.00000  -0.00001   0.00002   0.00001
 128        2PZ        -0.00000  -0.00000   0.00000   0.00003   0.00003
 129        3S          0.00004   0.00014  -0.00025   0.00018  -0.00151
 130        3PX        -0.00000  -0.00000  -0.00000   0.00014  -0.00047
 131        3PY        -0.00000  -0.00000   0.00004  -0.00024   0.00003
 132        3PZ         0.00001   0.00004  -0.00005  -0.00017  -0.00031
 133        4XX        -0.00001  -0.00002   0.00004   0.00003   0.00015
 134        4YY        -0.00002  -0.00002   0.00003   0.00001   0.00020
 135        4ZZ        -0.00002  -0.00004   0.00005   0.00000   0.00014
 136        4XY         0.00000   0.00000   0.00000  -0.00001   0.00004
 137        4XZ         0.00000  -0.00000   0.00000  -0.00000   0.00001
 138        4YZ        -0.00000   0.00000   0.00000  -0.00003   0.00003
 139 13  H  1S          0.00001   0.00001   0.00000  -0.00007   0.00003
 140        2S         -0.00003   0.00005  -0.00012   0.00025  -0.00040
 141        3PX        -0.00000   0.00000  -0.00001   0.00003  -0.00003
 142        3PY         0.00000   0.00000   0.00000  -0.00002   0.00001
 143        3PZ         0.00000   0.00001  -0.00001  -0.00002  -0.00003
 144 14  O  1S         -0.00014   0.99266   0.00002   0.00000   0.00002
 145        2S         -0.00021   0.02568   0.00006  -0.00010   0.00010
 146        2PX         0.00002  -0.00063  -0.00002   0.00002   0.00000
 147        2PY         0.00001   0.00019  -0.00002   0.00003  -0.00001
 148        2PZ        -0.00003   0.00059   0.00006   0.00004  -0.00000
 149        3S          0.00114   0.01334  -0.00023   0.00057  -0.00061
 150        3PX        -0.00012  -0.00013   0.00027  -0.00038   0.00005
 151        3PY         0.00010   0.00017   0.00019  -0.00021  -0.00019
 152        3PZ         0.00045   0.00024  -0.00024  -0.00024  -0.00021
 153        4XX        -0.00009  -0.00830  -0.00001   0.00001   0.00009
 154        4YY        -0.00011  -0.00834   0.00004  -0.00007   0.00002
 155        4ZZ        -0.00009  -0.00837   0.00001  -0.00010  -0.00002
 156        4XY        -0.00002  -0.00000  -0.00003   0.00003  -0.00002
 157        4XZ        -0.00001  -0.00001   0.00002   0.00001   0.00001
 158        4YZ         0.00004  -0.00004   0.00001  -0.00002   0.00002
 159 15  H  1S         -0.00010   0.00036   0.00014  -0.00015  -0.00000
 160        2S          0.00043  -0.00164  -0.00031  -0.00110  -0.00026
 161        3PX         0.00001  -0.00003   0.00004   0.00005  -0.00002
 162        3PY         0.00001  -0.00006  -0.00002  -0.00004  -0.00002
 163        3PZ         0.00005  -0.00004  -0.00002  -0.00002  -0.00003
 164 16  O  1S          0.99269   0.00008   0.00015   0.00000   0.00005
 165        2S          0.02576  -0.00008   0.00014   0.00007   0.00021
 166        2PX         0.00091   0.00000  -0.00002   0.00002   0.00002
 167        2PY         0.00027   0.00003  -0.00004   0.00001  -0.00003
 168        2PZ        -0.00021   0.00002  -0.00004  -0.00000  -0.00000
 169        3S          0.01276   0.00053  -0.00070  -0.00040  -0.00133
 170        3PX        -0.00044  -0.00001   0.00023  -0.00008   0.00003
 171        3PY         0.00026  -0.00004   0.00024  -0.00004  -0.00009
 172        3PZ        -0.00051  -0.00030   0.00016   0.00005   0.00017
 173        4XX        -0.00826  -0.00002   0.00012   0.00001   0.00015
 174        4YY        -0.00825  -0.00005   0.00015   0.00003   0.00017
 175        4ZZ        -0.00824  -0.00003   0.00011   0.00003   0.00012
 176        4XY        -0.00002  -0.00001  -0.00001   0.00002  -0.00010
 177        4XZ         0.00002   0.00000  -0.00001  -0.00001  -0.00002
 178        4YZ         0.00003  -0.00003  -0.00002  -0.00001  -0.00004
 179 17  H  1S          0.00043  -0.00004  -0.00004   0.00007   0.00006
 180        2S         -0.00099   0.00007   0.00025  -0.00001  -0.00005
 181        3PX         0.00004  -0.00000   0.00004  -0.00002   0.00002
 182        3PY        -0.00005   0.00001   0.00001   0.00001  -0.00001
 183        3PZ         0.00006  -0.00000  -0.00003  -0.00001   0.00000
 184 18  O  1S         -0.00008  -0.00004   0.99265  -0.00011   0.00004
 185        2S          0.00010  -0.00013   0.02577  -0.00005   0.00018
 186        2PX         0.00001  -0.00002  -0.00081   0.00000  -0.00001
 187        2PY        -0.00002  -0.00000  -0.00057   0.00000   0.00002
 188        2PZ        -0.00003   0.00005   0.00005   0.00000   0.00001
 189        3S         -0.00052   0.00077   0.01308   0.00025  -0.00096
 190        3PX        -0.00017  -0.00020  -0.00038   0.00001   0.00037
 191        3PY        -0.00005  -0.00019  -0.00018   0.00001  -0.00007
 192        3PZ         0.00019  -0.00027   0.00004  -0.00002  -0.00011
 193        4XX         0.00014  -0.00004  -0.00826  -0.00005   0.00007
 194        4YY         0.00011  -0.00005  -0.00829  -0.00005   0.00014
 195        4ZZ         0.00008  -0.00010  -0.00832  -0.00004   0.00005
 196        4XY         0.00002   0.00001  -0.00002  -0.00000  -0.00003
 197        4XZ        -0.00003   0.00003   0.00001   0.00000   0.00000
 198        4YZ         0.00001  -0.00002  -0.00001   0.00001   0.00003
 199 19  O  1S         -0.00001  -0.00002   0.00007   0.99268   0.00000
 200        2S         -0.00006   0.00004  -0.00011   0.02559   0.00004
 201        2PX        -0.00002  -0.00001  -0.00001  -0.00008   0.00002
 202        2PY         0.00000   0.00002   0.00001   0.00062   0.00002
 203        2PZ        -0.00004   0.00003  -0.00001   0.00063  -0.00001
 204        3S          0.00019  -0.00023   0.00062   0.01313  -0.00018
 205        3PX         0.00005   0.00023   0.00006   0.00031  -0.00018
 206        3PY         0.00005  -0.00015  -0.00001   0.00031  -0.00031
 207        3PZ         0.00018  -0.00027   0.00011   0.00023  -0.00006
 208        4XX        -0.00005   0.00007  -0.00009  -0.00824   0.00002
 209        4YY        -0.00004   0.00001  -0.00009  -0.00832  -0.00004
 210        4ZZ        -0.00003  -0.00001  -0.00007  -0.00833  -0.00003
 211        4XY        -0.00000  -0.00002   0.00001   0.00001   0.00001
 212        4XZ         0.00002  -0.00001  -0.00001  -0.00002  -0.00004
 213        4YZ         0.00004  -0.00003  -0.00001   0.00000  -0.00001
                          11        12        13        14        15
                           O         O         O         O         O
     Eigenvalues --   -10.38217  -6.89521  -6.88347  -5.05855  -5.05819
   1 1   C  1S         -0.00092   0.00015   0.00014  -0.00003   0.00007
   2        2S         -0.00000   0.00097   0.00096  -0.00056   0.00176
   3        2PX        -0.00001   0.00004  -0.00002   0.00010   0.00012
   4        2PY        -0.00012  -0.00010  -0.00001  -0.00032  -0.00012
   5        2PZ         0.00004  -0.00008  -0.00010   0.00027  -0.00005
   6        3S          0.00328  -0.00512  -0.00475   0.00252  -0.00699
   7        3PX        -0.00005   0.00245  -0.00210  -0.00186   0.00442
   8        3PY         0.00187   0.00080   0.00023   0.00226   0.00188
   9        3PZ        -0.00152  -0.00004   0.00009  -0.00380  -0.00136
  10        4XX        -0.00007   0.00012   0.00005   0.00018  -0.00025
  11        4YY        -0.00034   0.00025   0.00018  -0.00005   0.00001
  12        4ZZ        -0.00026   0.00019   0.00016  -0.00006   0.00008
  13        4XY         0.00001  -0.00016   0.00015   0.00005  -0.00062
  14        4XZ        -0.00000   0.00001   0.00001   0.00033   0.00004
  15        4YZ         0.00013  -0.00003  -0.00005  -0.00011  -0.00017
  16 2   C  1S          0.99295  -0.00002   0.00000   0.00001  -0.00003
  17        2S          0.05018  -0.00018  -0.00012   0.00029  -0.00024
  18        2PX         0.00000   0.00004   0.00001   0.00001  -0.00004
  19        2PY        -0.00051  -0.00005  -0.00008   0.00021  -0.00006
  20        2PZ         0.00024   0.00007   0.00009  -0.00016   0.00008
  21        3S         -0.01722   0.00088   0.00080  -0.00294   0.00100
  22        3PX        -0.00019  -0.00122   0.00088   0.00070  -0.00131
  23        3PY         0.00173  -0.00138  -0.00127   0.00229  -0.00115
  24        3PZ        -0.00117   0.00059   0.00066  -0.00132   0.00038
  25        4XX        -0.00888  -0.00001   0.00002  -0.00007  -0.00001
  26        4YY        -0.00904   0.00014   0.00015  -0.00027   0.00013
  27        4ZZ        -0.00896   0.00000   0.00006  -0.00006   0.00000
  28        4XY        -0.00001   0.00009  -0.00011  -0.00014   0.00015
  29        4XZ        -0.00001  -0.00012   0.00010   0.00009  -0.00016
  30        4YZ         0.00015  -0.00008  -0.00007   0.00013  -0.00006
  31 3   H  1S          0.00000  -0.00016  -0.00015   0.00022  -0.00015
  32        2S          0.00219   0.00061   0.00071  -0.00107   0.00035
  33        3PX         0.00000   0.00001   0.00002   0.00006   0.00004
  34        3PY        -0.00013  -0.00002  -0.00002   0.00005  -0.00002
  35        3PZ        -0.00019   0.00006   0.00006  -0.00010   0.00003
  36 4   H  1S         -0.00008  -0.00020   0.00006   0.00024  -0.00014
  37        2S          0.00225   0.00053   0.00051  -0.00119   0.00019
  38        3PX        -0.00016   0.00003  -0.00001  -0.00002   0.00004
  39        3PY         0.00007  -0.00007   0.00004   0.00012  -0.00004
  40        3PZ         0.00008   0.00005  -0.00005  -0.00001   0.00007
  41 5   H  1S         -0.00003   0.00009  -0.00013  -0.00002   0.00006
  42        2S          0.00237   0.00067   0.00066  -0.00033   0.00049
  43        3PX         0.00016  -0.00001  -0.00002  -0.00002   0.00001
  44        3PY         0.00005   0.00004  -0.00010  -0.00007   0.00007
  45        3PZ         0.00007  -0.00006   0.00005   0.00003  -0.00007
  46 6   O  1S         -0.00002  -0.00009  -0.00006  -0.00003  -0.00013
  47        2S         -0.00014  -0.00043  -0.00033  -0.00016  -0.00071
  48        2PX        -0.00000   0.00010  -0.00011  -0.00009   0.00009
  49        2PY        -0.00004   0.00003   0.00001   0.00006   0.00006
  50        2PZ         0.00009   0.00000   0.00003  -0.00001   0.00004
  51        3S          0.00019   0.00234   0.00179   0.00103   0.00380
  52        3PX        -0.00002  -0.00087   0.00090   0.00057  -0.00108
  53        3PY         0.00019  -0.00063  -0.00034  -0.00078  -0.00115
  54        3PZ        -0.00044  -0.00079  -0.00095  -0.00008  -0.00149
  55        4XX        -0.00018  -0.00022  -0.00014  -0.00013  -0.00037
  56        4YY        -0.00006  -0.00020  -0.00018   0.00011  -0.00025
  57        4ZZ         0.00006  -0.00021  -0.00011  -0.00009  -0.00027
  58        4XY         0.00001   0.00005  -0.00006  -0.00005   0.00005
  59        4XZ        -0.00000   0.00016  -0.00016  -0.00011   0.00022
  60        4YZ        -0.00003   0.00010   0.00010   0.00007   0.00022
  61 7   H  1S          0.00011  -0.00008  -0.00004  -0.00015  -0.00014
  62        2S          0.00027   0.00049   0.00089   0.00044   0.00105
  63        3PX        -0.00000  -0.00003   0.00004  -0.00008  -0.00004
  64        3PY        -0.00000  -0.00002  -0.00001  -0.00010  -0.00002
  65        3PZ        -0.00003  -0.00010  -0.00015  -0.00007  -0.00016
  66 8   P  1S         -0.00000  -0.27420  -0.00002   0.00011   0.00036
  67        2S         -0.00007   1.02394  -0.00008  -0.00052  -0.00130
  68        2PX         0.00001  -0.00161  -0.00004   0.04731   0.87140
  69        2PY         0.00001   0.00323  -0.00001  -0.68832   0.36812
  70        2PZ         0.00001   0.00392   0.00000   0.71242   0.29768
  71        3S         -0.00020   0.07520  -0.00074  -0.00069   0.00143
  72        3PX        -0.00008   0.00052   0.00021   0.00156   0.02716
  73        3PY        -0.00023   0.00090   0.00009  -0.02126   0.01166
  74        3PZ        -0.00010   0.00059  -0.00001   0.02222   0.00975
  75        4S          0.00115  -0.01200   0.00246   0.00204  -0.00191
  76        4PX         0.00022  -0.00200   0.00208   0.00012  -0.00638
  77        4PY         0.00070  -0.00064  -0.00116   0.00540  -0.00174
  78        4PZ        -0.00071   0.00040   0.00026  -0.00521  -0.00077
  79        5XX        -0.00011  -0.01720   0.00031  -0.00099  -0.00004
  80        5YY        -0.00003  -0.01727  -0.00013  -0.00091  -0.00034
  81        5ZZ        -0.00009  -0.01716  -0.00001   0.00216  -0.00058
  82        5XY        -0.00001   0.00001   0.00005   0.00056   0.00205
  83        5XZ         0.00001   0.00008   0.00001  -0.00063   0.00044
  84        5YZ         0.00001  -0.00005  -0.00003  -0.00060   0.00018
  85 9   P  1S         -0.00000   0.00000  -0.27418  -0.00000   0.00000
  86        2S         -0.00010  -0.00010   1.02394   0.00003  -0.00001
  87        2PX        -0.00002   0.00004  -0.00245   0.00003  -0.00064
  88        2PY        -0.00000  -0.00001  -0.00333   0.00017  -0.00016
  89        2PZ         0.00003  -0.00000   0.00039   0.00035   0.00015
  90        3S         -0.00029  -0.00056   0.07600  -0.00002  -0.00019
  91        3PX         0.00023  -0.00024  -0.00113  -0.00017  -0.00061
  92        3PY        -0.00011   0.00013   0.00011   0.00025   0.00018
  93        3PZ        -0.00018  -0.00001   0.00031   0.00012  -0.00001
  94        4S          0.00166   0.00106  -0.01327   0.00024  -0.00070
  95        4PX        -0.00075  -0.00127   0.00337   0.00025  -0.00035
  96        4PY         0.00051  -0.00090   0.00042   0.00011  -0.00083
  97        4PZ        -0.00081  -0.00016  -0.00008   0.00069  -0.00027
  98        5XX        -0.00014   0.00041  -0.01726   0.00014   0.00065
  99        5YY        -0.00004  -0.00007  -0.01752   0.00003  -0.00016
 100        5ZZ        -0.00005  -0.00002  -0.01745   0.00007  -0.00006
 101        5XY        -0.00000  -0.00004   0.00010  -0.00002  -0.00001
 102        5XZ         0.00002   0.00002  -0.00001  -0.00016  -0.00003
 103        5YZ         0.00002   0.00000   0.00003   0.00015   0.00007
 104 10  O  1S         -0.00002  -0.00002   0.00002  -0.00025  -0.00015
 105        2S         -0.00009   0.00056   0.00011   0.00122  -0.00057
 106        2PX        -0.00002  -0.00004   0.00002   0.00004   0.00006
 107        2PY         0.00001   0.00007  -0.00002   0.00014   0.00017
 108        2PZ         0.00002  -0.00036  -0.00001  -0.00065   0.00008
 109        3S          0.00037  -0.00357  -0.00067  -0.00566   0.00248
 110        3PX         0.00011   0.00051  -0.00024   0.00018  -0.00071
 111        3PY         0.00004  -0.00003   0.00011   0.00007  -0.00112
 112        3PZ        -0.00012   0.00217   0.00013   0.00373  -0.00053
 113        4XX        -0.00005   0.00029   0.00007   0.00037  -0.00049
 114        4YY        -0.00007   0.00013   0.00000   0.00017  -0.00042
 115        4ZZ        -0.00004   0.00065   0.00005   0.00048  -0.00017
 116        4XY         0.00001  -0.00018  -0.00002  -0.00037   0.00001
 117        4XZ        -0.00001  -0.00013   0.00002   0.00004   0.00041
 118        4YZ        -0.00002  -0.00014  -0.00005  -0.00023   0.00015
 119 11  H  1S         -0.00002   0.00055   0.00008   0.00086  -0.00046
 120        2S          0.00020   0.00081  -0.00023   0.00198  -0.00131
 121        3PX         0.00001   0.00007   0.00000   0.00019   0.00002
 122        3PY         0.00002   0.00013   0.00001   0.00025  -0.00004
 123        3PZ        -0.00000  -0.00017   0.00002  -0.00035   0.00007
 124 12  O  1S          0.00000   0.00001  -0.00003   0.00013   0.00007
 125        2S          0.00003   0.00066  -0.00012  -0.00079  -0.00102
 126        2PX        -0.00002   0.00022   0.00004  -0.00028  -0.00033
 127        2PY         0.00000  -0.00026   0.00003   0.00023   0.00028
 128        2PZ         0.00002  -0.00003  -0.00002   0.00008   0.00007
 129        3S         -0.00022  -0.00408   0.00073   0.00353   0.00454
 130        3PX        -0.00012  -0.00128  -0.00009   0.00150   0.00170
 131        3PY        -0.00002   0.00162  -0.00014  -0.00126  -0.00196
 132        3PZ        -0.00012   0.00058   0.00016  -0.00129  -0.00102
 133        4XX        -0.00001   0.00068  -0.00009  -0.00012  -0.00080
 134        4YY        -0.00002   0.00054  -0.00007  -0.00064  -0.00017
 135        4ZZ         0.00003  -0.00000  -0.00008   0.00001  -0.00015
 136        4XY        -0.00000  -0.00018   0.00001   0.00000  -0.00020
 137        4XZ         0.00001  -0.00007  -0.00000  -0.00011   0.00002
 138        4YZ        -0.00002  -0.00006  -0.00000   0.00026   0.00010
 139 13  H  1S         -0.00004   0.00063   0.00000  -0.00073  -0.00066
 140        2S         -0.00033   0.00112   0.00024  -0.00191  -0.00145
 141        3PX        -0.00005   0.00018   0.00003  -0.00026  -0.00015
 142        3PY         0.00001  -0.00012   0.00000   0.00008   0.00018
 143        3PZ        -0.00002   0.00016   0.00001  -0.00014  -0.00016
 144 14  O  1S          0.00007   0.00002  -0.00010   0.00001  -0.00001
 145        2S          0.00030   0.00007   0.00026   0.00004  -0.00005
 146        2PX        -0.00002   0.00003   0.00006  -0.00006   0.00002
 147        2PY         0.00008  -0.00009   0.00020   0.00005  -0.00009
 148        2PZ         0.00002  -0.00001   0.00030   0.00001  -0.00002
 149        3S         -0.00136  -0.00073  -0.00201   0.00000  -0.00014
 150        3PX         0.00000  -0.00008  -0.00004   0.00025  -0.00005
 151        3PY        -0.00051   0.00031  -0.00086  -0.00013   0.00045
 152        3PZ        -0.00021  -0.00001  -0.00143   0.00001   0.00019
 153        4XX         0.00024   0.00012  -0.00016  -0.00001   0.00004
 154        4YY         0.00018   0.00003   0.00031   0.00005  -0.00003
 155        4ZZ         0.00023   0.00002   0.00044   0.00008  -0.00002
 156        4XY         0.00003  -0.00001  -0.00006   0.00003  -0.00003
 157        4XZ         0.00001  -0.00000   0.00007  -0.00001  -0.00002
 158        4YZ        -0.00003   0.00007   0.00025  -0.00002   0.00005
 159 15  H  1S          0.00006   0.00003   0.00025   0.00012  -0.00000
 160        2S         -0.00038   0.00071   0.00112  -0.00008   0.00093
 161        3PX        -0.00007  -0.00011   0.00006   0.00001  -0.00004
 162        3PY        -0.00002   0.00005   0.00014  -0.00005   0.00000
 163        3PZ        -0.00001   0.00008   0.00020   0.00006   0.00003
 164 16  O  1S         -0.00001  -0.00003  -0.00006  -0.00009  -0.00011
 165        2S         -0.00006  -0.00009   0.00028  -0.00030  -0.00041
 166        2PX         0.00000   0.00010   0.00013   0.00015   0.00015
 167        2PY        -0.00002  -0.00006   0.00018  -0.00002  -0.00011
 168        2PZ         0.00002   0.00001  -0.00019   0.00004   0.00007
 169        3S          0.00021   0.00004  -0.00209   0.00105   0.00149
 170        3PX        -0.00006  -0.00055  -0.00135  -0.00095  -0.00096
 171        3PY         0.00011   0.00030  -0.00102   0.00021   0.00064
 172        3PZ        -0.00009  -0.00012   0.00116  -0.00036  -0.00055
 173        4XX        -0.00006  -0.00013  -0.00020  -0.00036  -0.00041
 174        4YY        -0.00003  -0.00010   0.00034  -0.00027  -0.00032
 175        4ZZ        -0.00005  -0.00013   0.00037  -0.00028  -0.00035
 176        4XY        -0.00001   0.00001   0.00003  -0.00003  -0.00001
 177        4XZ        -0.00001  -0.00004  -0.00013  -0.00005  -0.00005
 178        4YZ        -0.00003  -0.00006  -0.00010  -0.00003  -0.00009
 179 17  H  1S          0.00001   0.00022   0.00060   0.00035   0.00032
 180        2S          0.00024   0.00024   0.00089   0.00001   0.00036
 181        3PX        -0.00002  -0.00008  -0.00013  -0.00013  -0.00015
 182        3PY         0.00001   0.00002   0.00011   0.00002   0.00001
 183        3PZ        -0.00002  -0.00004  -0.00014  -0.00004  -0.00005
 184 18  O  1S          0.00003  -0.00004  -0.00017   0.00000  -0.00003
 185        2S          0.00013  -0.00016   0.00083   0.00003  -0.00015
 186        2PX        -0.00002  -0.00003  -0.00072   0.00003  -0.00001
 187        2PY         0.00002   0.00002  -0.00059  -0.00001   0.00003
 188        2PZ        -0.00003  -0.00001   0.00001   0.00004  -0.00001
 189        3S         -0.00064   0.00093  -0.00428  -0.00021   0.00088
 190        3PX         0.00023   0.00007   0.00164  -0.00004  -0.00001
 191        3PY        -0.00010  -0.00005   0.00163   0.00008  -0.00004
 192        3PZ         0.00019   0.00005  -0.00005  -0.00020   0.00006
 193        4XX         0.00007  -0.00013   0.00096   0.00001  -0.00010
 194        4YY         0.00010  -0.00014   0.00045  -0.00000  -0.00014
 195        4ZZ         0.00008  -0.00009   0.00017   0.00000  -0.00005
 196        4XY         0.00001  -0.00002   0.00053  -0.00002  -0.00003
 197        4XZ        -0.00003   0.00000  -0.00004   0.00002   0.00000
 198        4YZ        -0.00002   0.00000   0.00000   0.00001  -0.00000
 199 19  O  1S          0.00006  -0.00021   0.00005   0.00007   0.00020
 200        2S          0.00022   0.00042   0.00019   0.00019  -0.00089
 201        2PX         0.00001  -0.00007  -0.00002   0.00001   0.00028
 202        2PY         0.00009   0.00052  -0.00006  -0.00005  -0.00053
 203        2PZ        -0.00000   0.00059   0.00002   0.00008  -0.00052
 204        3S         -0.00103  -0.00219  -0.00125  -0.00092   0.00384
 205        3PX        -0.00003   0.00030  -0.00010  -0.00009  -0.00108
 206        3PY        -0.00047  -0.00117   0.00023   0.00012   0.00164
 207        3PZ        -0.00004  -0.00146  -0.00013  -0.00049   0.00154
 208        4XX         0.00019  -0.00008   0.00017   0.00021  -0.00022
 209        4YY         0.00012   0.00051   0.00014   0.00035  -0.00045
 210        4ZZ         0.00019   0.00049   0.00010  -0.00011  -0.00047
 211        4XY        -0.00002  -0.00004   0.00002  -0.00008  -0.00014
 212        4XZ        -0.00001  -0.00004   0.00001   0.00002  -0.00011
 213        4YZ        -0.00002   0.00056   0.00007  -0.00001  -0.00033
                          16        17        18        19        20
                           O         O         O         O         O
     Eigenvalues --    -5.05769  -5.04676  -5.04658  -5.04539  -1.30835
   1 1   C  1S          0.00013   0.00007   0.00009   0.00004  -0.07449
   2        2S          0.00078   0.00117   0.00159  -0.00004   0.13719
   3        2PX        -0.00039  -0.00007   0.00005   0.00039  -0.00178
   4        2PY         0.00032  -0.00015   0.00017   0.00037   0.02731
   5        2PZ         0.00010   0.00017  -0.00024   0.00000   0.08910
   6        3S         -0.00576  -0.00530  -0.00616  -0.00088   0.06637
   7        3PX         0.00357  -0.00242  -0.00393  -0.00148  -0.00149
   8        3PY        -0.00348   0.00106  -0.00094  -0.00460  -0.02779
   9        3PZ        -0.00327  -0.00339   0.00179  -0.00157  -0.01547
  10        4XX         0.00001  -0.00016  -0.00035  -0.00003  -0.00400
  11        4YY         0.00031   0.00004   0.00011   0.00026  -0.00458
  12        4ZZ        -0.00017  -0.00001   0.00011  -0.00018   0.01338
  13        4XY         0.00000   0.00036   0.00039  -0.00017   0.00016
  14        4XZ         0.00025  -0.00027   0.00024  -0.00013  -0.00014
  15        4YZ         0.00001  -0.00014  -0.00004   0.00007   0.00868
  16 2   C  1S         -0.00001  -0.00008  -0.00000   0.00002  -0.01271
  17        2S         -0.00012  -0.00031  -0.00026   0.00002   0.02248
  18        2PX         0.00003  -0.00008   0.00006   0.00007   0.00013
[...]
  73         V                 0.150754          1.946435
  74         V                 0.181155          2.120888
  75         V                 0.190020          2.083977
  76         V                 0.218557          2.122160
  77         V                 0.220522          2.258560
  78         V                 0.232502          2.192281
  79         V                 0.258262          1.862310
  80         V                 0.302963          2.172944
  81         V                 0.327424          2.539807
  82         V                 0.358838          2.304853
  83         V                 0.380337          2.202120
  84         V                 0.392452          2.254867
  85         V                 0.465652          2.295511
  86         V                 0.506473          2.195063
  87         V                 0.520106          2.336067
  88         V                 0.547489          2.640817
  89         V                 0.564511          2.489702
  90         V                 0.572447          2.515802
  91         V                 0.586937          2.416332
  92         V                 0.593756          2.610956
  93         V                 0.616628          2.638630
  94         V                 0.634673          2.544875
  95         V                 0.646171          2.410508
  96         V                 0.659895          2.557514
  97         V                 0.680970          2.786665
  98         V                 0.684357          2.662972
  99         V                 0.686700          2.714728
 100         V                 0.712461          2.826029
 101         V                 0.734856          2.768276
 102         V                 0.750299          2.815133
 103         V                 0.755062          2.731133
 104         V                 0.770393          2.996437
 105         V                 0.775069          3.011283
 106         V                 0.788288          3.119811
 107         V                 0.795770          2.976573
 108         V                 0.809811          3.340743
 109         V                 0.831093          3.029448
 110         V                 0.834081          3.077805
 111         V                 0.841468          2.997830
 112         V                 0.846693          3.221145
 113         V                 0.853950          3.159558
 114         V                 0.885617          3.114175
 115         V                 0.902088          3.309209
 116         V                 0.936909          3.481556
 117         V                 0.951109          3.701817
 118         V                 0.963973          3.725181
 119         V                 0.979963          3.396903
 120         V                 0.992991          3.453610
 121         V                 1.003479          3.395493
 122         V                 1.059604          3.248093
 123         V                 1.070715          2.905800
 124         V                 1.094670          3.187169
 125         V                 1.136332          3.022322
 126         V                 1.160048          2.558664
 127         V                 1.190837          2.895777
 128         V                 1.208344          2.724409
 129         V                 1.237601          2.693745
 130         V                 1.268579          2.791077
 131         V                 1.303285          2.737125
 132         V                 1.325522          2.725485
 133         V                 1.350829          2.665973
 134         V                 1.366481          2.675183
 135         V                 1.377663          2.685397
 136         V                 1.387230          2.678446
 137         V                 1.419938          2.813474
 138         V                 1.443283          2.805195
 139         V                 1.469142          2.884089
 140         V                 1.471193          2.813679
 141         V                 1.489245          2.847191
 142         V                 1.526475          2.941474
 143         V                 1.555900          2.924696
 144         V                 1.581447          2.918905
 145         V                 1.587690          2.968919
 146         V                 1.600921          3.031221
 147         V                 1.619709          2.979920
 148         V                 1.632734          3.031764
 149         V                 1.643031          3.073561
 150         V                 1.659026          3.132955
 151         V                 1.669548          3.112978
 152         V                 1.688305          3.157833
 153         V                 1.697943          3.199451
 154         V                 1.775947          3.598569
 155         V                 1.786139          3.416123
 156         V                 1.818683          3.284928
 157         V                 1.836012          3.330989
 158         V                 1.862074          3.141523
 159         V                 1.870401          3.245170
 160         V                 1.880797          3.297436
 161         V                 1.921332          3.321119
 162         V                 1.937694          3.292904
 163         V                 1.955914          3.462315
 164         V                 1.976054          3.442992
 165         V                 1.990232          3.508299
 166         V                 2.109795          3.735406
 167         V                 2.124248          3.714365
 168         V                 2.135977          3.678030
 169         V                 2.155287          3.675154
 170         V                 2.178655          3.769628
 171         V                 2.204790          3.828652
 172         V                 2.224486          3.664592
 173         V                 2.259878          3.838310
 174         V                 2.288844          4.259369
 175         V                 2.306976          3.891393
 176         V                 2.318654          4.363028
 177         V                 2.395781          3.868512
 178         V                 2.417821          3.838396
 179         V                 2.426673          4.056616
 180         V                 2.432986          3.618409
 181         V                 2.443327          3.768949
 182         V                 2.454349          4.154605
 183         V                 2.455629          3.720061
 184         V                 2.505657          3.760509
 185         V                 2.515574          3.870819
 186         V                 2.521861          3.841480
 187         V                 2.527184          3.886185
 188         V                 2.580652          4.260186
 189         V                 2.590365          4.245040
 190         V                 2.634148          4.704261
 191         V                 2.679793          4.586094
 192         V                 2.683676          3.957205
 193         V                 2.722161          4.138923
 194         V                 2.786324          4.487906
 195         V                 3.035287          4.987256
 196         V                 3.153372          6.598704
 197         V                 3.161906          6.483454
 198         V                 3.176192          6.336220
 199         V                 3.218418          6.033043
 200         V                 3.246014          5.872181
 201         V                 3.259231          5.450442
 202         V                 3.268149          6.137197
 203         V                 3.311825          9.788318
 204         V                 3.350569          9.345943
 205         V                 3.552123          9.345585
 206         V                 3.725882          9.931961
 207         V                 3.800126         10.281832
 208         V                 3.825697          9.970377
 209         V                 3.865072         10.315639
 210         V                 3.986263         10.466071
 211         V                 4.029640         10.771986
 212         V                 4.116641         10.443513
 213         V                 4.378362         10.297413
 Total kinetic energy from orbitals= 1.282097955760D+03
                          Isotropic Fermi Contact Couplings
        Atom                 a.u.       MegaHertz       Gauss      10(-4) cm-1
     1  C(13)             -0.01377     -15.48108      -5.52403      -5.16393
     2  C(13)             -0.00483      -5.43088      -1.93787      -1.81155
     3  H(1)              -0.00017      -0.77337      -0.27596      -0.25797
     4  H(1)               0.00437      19.54160       6.97293       6.51838
     5  H(1)               0.00323      14.45613       5.15831       4.82205
     6  O(17)              0.04943     -29.96391     -10.69187      -9.99488
     7  H(1)              -0.00458     -20.48892      -7.31096      -6.83437
     8  P(31)              0.05821     105.42253      37.61738      35.16517
     9  P(31)             -0.03865     -69.99372     -24.97550     -23.34739
    10  O(17)             -0.00020       0.12352       0.04408       0.04120
    11  H(1)              -0.00008      -0.33816      -0.12066      -0.11280
    12  O(17)              0.00540      -3.27540      -1.16875      -1.09256
    13  H(1)              -0.00040      -1.80261      -0.64321      -0.60128
    14  O(17)             -0.00596       3.61063       1.28836       1.20437
    15  H(1)              -0.00095      -4.26651      -1.52240      -1.42315
    16  O(17)              0.00030      -0.18371      -0.06555      -0.06128
    17  H(1)              -0.00021      -0.95296      -0.34004      -0.31787
    18  O(17)              0.02714     -16.45016      -5.86983      -5.48718
    19  O(17)              0.00746      -4.52120      -1.61328      -1.50811
 --------------------------------------------------------
       Center         ----  Spin Dipole Couplings  ----
                      3XX-RR        3YY-RR        3ZZ-RR
 --------------------------------------------------------
     1   Atom        0.255265     -0.135994     -0.119271
     2   Atom        0.002170     -0.002203      0.000033
     3   Atom       -0.001850     -0.002244      0.004094
     4   Atom       -0.001771      0.002421     -0.000649
     5   Atom       -0.001845      0.002683     -0.000838
     6   Atom        1.222489     -0.617753     -0.604737
     7   Atom       -0.015571      0.009499      0.006072
     8   Atom        0.032059      0.052463     -0.084522
     9   Atom        0.123210     -0.097906     -0.025304
    10   Atom       -0.034999     -0.037576      0.072575
    11   Atom       -0.000912      0.002017     -0.001105
    12   Atom        0.163411     -0.083700     -0.079710
    13   Atom        0.000604     -0.006669      0.006065
    14   Atom        0.021083     -0.008497     -0.012586
    15   Atom        0.010227     -0.002948     -0.007280
    16   Atom       -0.040410      0.035478      0.004932
    17   Atom        0.002609     -0.000433     -0.002175
    18   Atom        0.326315      0.148718     -0.475033
    19   Atom        0.131302      0.067545     -0.198847
 --------------------------------------------------------
                        XY            XZ            YZ
 --------------------------------------------------------
     1   Atom       -0.024193     -0.020956      0.005947
     2   Atom       -0.002144     -0.002602     -0.005069
     3   Atom       -0.000161      0.001051     -0.003549
     4   Atom       -0.003375      0.002262     -0.004297
     5   Atom       -0.000219     -0.001102     -0.004828
     6   Atom        0.121170     -0.087394     -0.008540
     7   Atom       -0.004244      0.003898     -0.047305
     8   Atom        0.147763      0.071800      0.070557
     9   Atom       -0.009165     -0.057802      0.032375
    10   Atom        0.006283     -0.023232     -0.005138
    11   Atom        0.004819     -0.001331     -0.000736
    12   Atom        0.037839     -0.036576     -0.005006
    13   Atom       -0.000162      0.004230      0.000140
    14   Atom       -0.106940     -0.106491      0.101386
    15   Atom        0.006059      0.001584      0.006385
    16   Atom        0.040048     -0.031301     -0.083939
    17   Atom       -0.001965      0.002106     -0.005250
    18   Atom       -0.797771      0.238053     -0.207132
    19   Atom        0.299395     -0.034577     -0.036211
 --------------------------------------------------------


 ---------------------------------------------------------------------------------
              Anisotropic Spin Dipole Couplings in Principal Axis System
 ---------------------------------------------------------------------------------

       Atom             a.u.   MegaHertz   Gauss  10(-4) cm-1        Axes

              Baa    -0.1387   -18.608    -6.640    -6.207  0.0463  0.9680 -0.2467
     1 C(13)  Bbb    -0.1193   -16.007    -5.712    -5.339  0.0698  0.2433  0.9674
              Bcc     0.2580    34.615    12.352    11.546  0.9965 -0.0620 -0.0563
 
              Baa    -0.0074    -0.995    -0.355    -0.332  0.3267  0.7244  0.6070
     2 C(13)  Bbb     0.0029     0.395     0.141     0.132  0.8226 -0.5342  0.1948
              Bcc     0.0045     0.600     0.214     0.200 -0.4654 -0.4356  0.7705
 
              Baa    -0.0039    -2.067    -0.738    -0.690 -0.1458  0.8964  0.4185
     3 H(1)   Bbb    -0.0019    -1.038    -0.370    -0.346  0.9804  0.1876 -0.0603
              Bcc     0.0058     3.105     1.108     1.036  0.1326 -0.4015  0.9062
 
              Baa    -0.0037    -1.992    -0.711    -0.664  0.4901  0.6636  0.5652
     4 H(1)   Bbb    -0.0035    -1.889    -0.674    -0.630  0.7694 -0.0245 -0.6384
              Bcc     0.0073     3.880     1.385     1.294 -0.4097  0.7477 -0.5225
 
              Baa    -0.0046    -2.456    -0.876    -0.819  0.3515  0.5244  0.7755
     5 H(1)   Bbb    -0.0015    -0.792    -0.283    -0.264  0.9344 -0.2475 -0.2561
              Bcc     0.0061     3.248     1.159     1.083  0.0577  0.8147 -0.5771
 
              Baa    -0.6262    45.308    16.167    15.113 -0.0570  0.9854  0.1603
     6 O(17)  Bbb    -0.6085    44.028    15.710    14.686  0.0575 -0.1570  0.9859
              Bcc     1.2346   -89.336   -31.877   -29.799  0.9967  0.0654 -0.0477
 
              Baa    -0.0396   -21.103    -7.530    -7.039  0.0059  0.6944  0.7195
     7 H(1)   Bbb    -0.0160    -8.556    -3.053    -2.854  0.9967  0.0539 -0.0603
              Bcc     0.0556    29.659    10.583     9.893 -0.0807  0.7175 -0.6918
 
              Baa    -0.1187   -25.664    -9.158    -8.561 -0.4247 -0.0066  0.9053
     8 P(31)  Bbb    -0.1045   -22.598    -8.063    -7.538 -0.6286  0.7218 -0.2896
              Bcc     0.2232    48.262    17.221    16.099  0.6516  0.6921  0.3107
 
              Baa    -0.1110   -23.989    -8.560    -8.002 -0.0598  0.9197 -0.3879
     9 P(31)  Bbb    -0.0336    -7.271    -2.594    -2.425  0.3389  0.3842  0.8588
              Bcc     0.1446    31.260    11.154    10.427  0.9389 -0.0802 -0.3347
 
              Baa    -0.0441     3.188     1.137     1.063  0.7593 -0.6390  0.1231
    10 O(17)  Bbb    -0.0337     2.436     0.869     0.813  0.6177  0.7673  0.1722
              Bcc     0.0777    -5.624    -2.007    -1.876 -0.2045 -0.0547  0.9773
 
              Baa    -0.0046    -2.457    -0.877    -0.819  0.8040 -0.5643  0.1872
    11 H(1)   Bbb    -0.0013    -0.673    -0.240    -0.224 -0.0357  0.2686  0.9626
              Bcc     0.0059     3.129     1.117     1.044  0.5935  0.7806 -0.1958
 
              Baa    -0.0894     6.470     2.309     2.158 -0.1619  0.9813 -0.1041
    12 O(17)  Bbb    -0.0850     6.152     2.195     2.052  0.1258  0.1251  0.9841
              Bcc     0.1744   -12.622    -4.504    -4.210  0.9787  0.1463 -0.1437
 
              Baa    -0.0067    -3.563    -1.271    -1.189  0.0354  0.9991 -0.0227
    13 H(1)   Bbb    -0.0017    -0.902    -0.322    -0.301  0.8775 -0.0420 -0.4778
              Bcc     0.0084     4.465     1.593     1.490  0.4783  0.0030  0.8782
 
              Baa    -0.1120     8.106     2.892     2.704  0.0576 -0.6675  0.7423
    14 O(17)  Bbb    -0.0989     7.153     2.552     2.386  0.7806  0.4937  0.3834
              Bcc     0.2109   -15.258    -5.445    -5.090  0.6224 -0.5574 -0.5495
 
              Baa    -0.0121    -6.461    -2.305    -2.155  0.1121 -0.6170  0.7789
    15 H(1)   Bbb    -0.0012    -0.659    -0.235    -0.220 -0.4381  0.6729  0.5961
              Bcc     0.0133     7.120     2.541     2.375  0.8919  0.4080  0.1948
 
              Baa    -0.0654     4.731     1.688     1.578 -0.1624  0.6685  0.7258
    16 O(17)  Bbb    -0.0561     4.058     1.448     1.354  0.9402 -0.1184  0.3194
              Bcc     0.1215    -8.789    -3.136    -2.932  0.2995  0.7342 -0.6093
 
              Baa    -0.0066    -3.542    -1.264    -1.182 -0.0396  0.6380  0.7690
    17 H(1)   Bbb     0.0004     0.201     0.072     0.067  0.7857  0.4953 -0.3705
              Bcc     0.0063     3.341     1.192     1.115  0.6173 -0.5896  0.5209
 
              Baa    -0.5659    40.945    14.610    13.658  0.6810  0.7167 -0.1505
    18 O(17)  Bbb    -0.5374    38.889    13.876    12.972 -0.0421  0.2435  0.9690
              Bcc     1.1033   -79.833   -28.487   -26.630  0.7311 -0.6535  0.1960
 
              Baa    -0.2062    14.918     5.323     4.976 -0.3839  0.5208  0.7624
    19 O(17)  Bbb    -0.1985    14.361     5.124     4.790  0.5513 -0.5331  0.6418
              Bcc     0.4046   -29.280   -10.448    -9.767  0.7407  0.6667 -0.0824
 

 ---------------------------------------------------------------------------------


 Test job not archived.
 1\1\GINC-BATAGIN2\SP\UB3LYP\6-31G(d,p)\C2H8O7P2(1+,2)\ORISON\22-Jan-20
 21\0\\#t B3LYP/6-31G(d,p) # Gfinput IOP(6/7=3) Pop=hirshfeld Density T
 est # Units(Ang,Deg)\\etidronate-opt-g09.log\\1,2\C,0,-0.0264,0.80416,
 -0.14419\C,0,-0.00302,1.95251,0.87016\H,0,0.01478,1.57511,1.8967\H,0,0
 .87217,2.58124,0.69369\H,0,-0.90857,2.54767,0.73747\O,0,-0.01024,1.379
 99,-1.43643\H,0,-0.12059,0.66428,-2.08173\P,0,1.46432,-0.28297,0.09094
 \P,0,-1.61343,-0.16664,0.10037\O,0,1.70689,-0.82228,-1.40777\H,0,2.238
 66,-1.63206,-1.42243\O,0,2.75008,0.66831,0.34412\H,0,3.0183,0.63789,1.
 27462\O,0,-1.37276,-1.08775,1.38538\H,0,-0.43907,-1.41309,1.45014\O,0,
 -1.50828,-1.12954,-1.21896\H,0,-2.39492,-1.31128,-1.56573\O,0,-2.85196
 ,0.64138,0.15505\O,0,1.30284,-1.33083,1.15259\\Version=EM64L-G16RevA.0
 3\State=2-A\HF=-1290.1045499\S2=0.756645\S2-1=0.\S2A=0.750028\RMSD=3.9
 73e-09\Dipole=1.0039091,-0.024859,-0.6303231\Quadrupole=3.0724914,-2.3
 394743,-0.7330172,1.7401868,6.3553827,6.8225109\PG=C01 [X(C2H8O7P2)]\\
 @


 I WOULD TAKE COUNSEL OF MYSELF.
 I WOULD STOP AND LOOK WITHIN
 AND LOOKING WITHIN, LOOK BACK, ALSO
 THAT I MAY LOOK AHEAD WITH CLEARER UNDERSTANDING
 OF THE WAY I HAVE BEEN MOVING, AND IN WHAT DIRECTION.
 I NEED TO KNOW IF I AM GOING FORWARD OR RETREATING,
 WHETHER I HAVE BEEN WASTING, OR ENJOYING
 THE PRECIOUS MOMENTS OF LIFE.  THERE HAVE BEEN FRICTIONS,
 ANNOYANCES AND SOMETIMES WRATH,
 BUT WERE THEY BECAUSE I WAS RIGHT AND OTHERS WRONG.....
 HAVE I HAD MY THOUGHTS TOO SHARPLY FOCUSED
 ON THAT WHICH PLEASED ME, SERVED MY SELF-ESTEEM,
 UNDERGIRDED MY SECURITY,
 OF WHICH I DID NOT INQUIRE WHETHER IT SERVED OR HAMPERED OTHERS.....
 HAVE I BEEN TRYING TO STOP THE CLOCK
 TO HOLD THE WORLD
 IN PERPETUATION OF WHAT WAS AN IS ALREADY SLIPPING AWAY.....
 HAVE I BEEN CRITICAL OF OTHERS FOR WHAT REALLY NEEDED CHANGING IN ME...
 LET ME INDEED TAKE COUNSEL OF MYSELF
 AND SET MY DIRECTIONS STRAIGHT.

                          R.T. WESTON AS ADAPTED BY D. OSBORN 1967
 Job cpu time:       0 days  0 hours 11 minutes  4.4 seconds.
 Elapsed time:       0 days  0 hours  1 minutes 23.1 seconds.
 File lengths (MBytes):  RWF=     48 Int=      0 D2E=      0 Chk=      4 Scr=      1
 Normal termination of Gaussian 16 at Fri Jan 22 02:12:59 2021.
