 Entering Gaussian System, Link 0=g16
 Input=etidronate-mep.com
 Output=etidronate-mep.log
 Initial command:
 /usr/local//g16/l1.exe "/home/orison/scrgauss/Gau-18322.inp" -scrdir="/home/orison/scrgauss/"
 Entering Link 1 = /usr/local//g16/l1.exe PID=     18324.
  
 Copyright (c) 1988,1990,1992,1993,1995,1998,2003,2009,2016,
            Gaussian, Inc.  All Rights Reserved.
  
 This is part of the Gaussian(R) 16 program.  It is based on
 the Gaussian(R) 09 system (copyright 2009, Gaussian, Inc.),
 the Gaussian(R) 03 system (copyright 2003, Gaussian, Inc.),
 the Gaussian(R) 98 system (copyright 1998, Gaussian, Inc.),
 the Gaussian(R) 94 system (copyright 1995, Gaussian, Inc.),
 the Gaussian 92(TM) system (copyright 1992, Gaussian, Inc.),
 the Gaussian 90(TM) system (copyright 1990, Gaussian, Inc.),
 the Gaussian 88(TM) system (copyright 1988, Gaussian, Inc.),
 the Gaussian 86(TM) system (copyright 1986, Carnegie Mellon
 University), and the Gaussian 82(TM) system (copyright 1983,
 Carnegie Mellon University). Gaussian is a federally registered
 trademark of Gaussian, Inc.
  
 This software contains proprietary and confidential information,
 including trade secrets, belonging to Gaussian, Inc.
  
 This software is provided under written license and may be
 used, copied, transmitted, or stored only in accord with that
 written license.
  
 The following legend is applicable only to US Government
 contracts under FAR:
  
                    RESTRICTED RIGHTS LEGEND
  
 Use, reproduction and disclosure by the US Government is
 subject to restrictions as set forth in subparagraphs (a)
 and (c) of the Commercial Computer Software - Restricted
 Rights clause in FAR 52.227-19.
  
 Gaussian, Inc.
 340 Quinnipiac St., Bldg. 40, Wallingford CT 06492
  
  
 ---------------------------------------------------------------
 Warning -- This program may not be used in any manner that
 competes with the business of Gaussian, Inc. or will provide
 assistance to any competitor of Gaussian, Inc.  The licensee
 of this program is prohibited from giving any competitor of
 Gaussian, Inc. access to this program.  By using this program,
 the user acknowledges that Gaussian, Inc. is engaged in the
 business of creating and licensing software in the field of
 computational chemistry and represents and warrants to the
 licensee that it is not a competitor of Gaussian, Inc. and that
 it will not use this program in any manner prohibited above.
 ---------------------------------------------------------------
  

 Cite this work as:
 Gaussian 16, Revision A.03,
 M. J. Frisch, G. W. Trucks, H. B. Schlegel, G. E. Scuseria, 
 M. A. Robb, J. R. Cheeseman, G. Scalmani, V. Barone, 
 G. A. Petersson, H. Nakatsuji, X. Li, M. Caricato, A. V. Marenich, 
 J. Bloino, B. G. Janesko, R. Gomperts, B. Mennucci, H. P. Hratchian, 
 J. V. Ortiz, A. F. Izmaylov, J. L. Sonnenberg, D. Williams-Young, 
 F. Ding, F. Lipparini, F. Egidi, J. Goings, B. Peng, A. Petrone, 
 T. Henderson, D. Ranasinghe, V. G. Zakrzewski, J. Gao, N. Rega, 
 G. Zheng, W. Liang, M. Hada, M. Ehara, K. Toyota, R. Fukuda, 
 J. Hasegawa, M. Ishida, T. Nakajima, Y. Honda, O. Kitao, H. Nakai, 
 T. Vreven, K. Throssell, J. A. Montgomery, Jr., J. E. Peralta, 
 F. Ogliaro, M. J. Bearpark, J. J. Heyd, E. N. Brothers, K. N. Kudin, 
 V. N. Staroverov, T. A. Keith, R. Kobayashi, J. Normand, 
 K. Raghavachari, A. P. Rendell, J. C. Burant, S. S. Iyengar, 
 J. Tomasi, M. Cossi, J. M. Millam, M. Klene, C. Adamo, R. Cammi, 
 J. W. Ochterski, R. L. Martin, K. Morokuma, O. Farkas, 
 J. B. Foresman, and D. J. Fox, Gaussian, Inc., Wallingford CT, 2016.
 
 ******************************************
 Gaussian 16:  EM64L-G16RevA.03 25-Dec-2016
                21-Jan-2021 
 ******************************************
 %chk=etidronate-mep.chk
 %nproc=8
 Will use up to    8 processors via shared memory.
 %Mem=4GB
 -----------------------------------------------------------------
 #P B3LYP/6-31G(d,p) # Pop=chelp # Gfinput IOP(6/7=3) Density Test
 -----------------------------------------------------------------
 1/30=1,38=1,172=1/1;
 2/12=2,17=6,18=5,40=1/2;
 3/5=1,6=6,7=101,11=2,24=10,25=1,30=1,74=-5/1,2,3;
 4//1;
 5/5=2,38=5/2;
 6/7=3,8=2,9=2,10=2,15=8,20=2,22=-1,28=1/1,2;
 99/5=1,9=1/99;
 Leave Link    1 at Thu Jan 21 22:39:21 2021, MaxMem=   536870912 cpu:               0.3 elap:               0.0
 (Enter /usr/local//g16/l101.exe)
 ----------------------
 etidronate-opt-g09.log
 ----------------------
 Symbolic Z-matrix:
 Charge =  0 Multiplicity = 1
 C                    -0.0264    0.80416  -0.14419 
 C                    -0.00302   1.95251   0.87016 
 H                     0.01478   1.57511   1.8967 
 H                     0.87217   2.58124   0.69369 
 H                    -0.90857   2.54767   0.73747 
 O                    -0.01024   1.37999  -1.43643 
 H                    -0.12059   0.66428  -2.08173 
 P                     1.46432  -0.28297   0.09094 
 P                    -1.61343  -0.16664   0.10037 
 O                     1.70689  -0.82228  -1.40777 
 H                     2.23866  -1.63206  -1.42243 
 O                     2.75008   0.66831   0.34412 
 H                     3.0183    0.63789   1.27462 
 O                    -1.37276  -1.08775   1.38538 
 H                    -0.43907  -1.41309   1.45014 
 O                    -1.50828  -1.12954  -1.21896 
 H                    -2.39492  -1.31128  -1.56573 
 O                    -2.85196   0.64138   0.15505 
 O                     1.30284  -1.33083   1.15259 
 
 ITRead=  0  0  0  0  0  0  0  0  0  0  0  0  0  0  0  0  0  0  0
 MicOpt= -1 -1 -1 -1 -1 -1 -1 -1 -1 -1 -1 -1 -1 -1 -1 -1 -1 -1 -1
 NAtoms=     19 NQM=       19 NQMF=       0 NMMI=      0 NMMIF=      0
                NMic=       0 NMicF=      0.
                    Isotopes and Nuclear Properties:
 (Nuclear quadrupole moments (NQMom) in fm**2, nuclear magnetic moments (NMagM)
  in nuclear magnetons)

  Atom         1           2           3           4           5           6           7           8           9          10
 IAtWgt=          12          12           1           1           1          16           1          31          31          16
 AtmWgt=  12.0000000  12.0000000   1.0078250   1.0078250   1.0078250  15.9949146   1.0078250  30.9737634  30.9737634  15.9949146
 NucSpn=           0           0           1           1           1           0           1           1           1           0
 AtZEff=  -0.0000000  -0.0000000  -0.0000000  -0.0000000  -0.0000000  -0.0000000  -0.0000000  -0.0000000  -0.0000000  -0.0000000
 NQMom=    0.0000000   0.0000000   0.0000000   0.0000000   0.0000000   0.0000000   0.0000000   0.0000000   0.0000000   0.0000000
 NMagM=    0.0000000   0.0000000   2.7928460   2.7928460   2.7928460   0.0000000   2.7928460   1.1316000   1.1316000   0.0000000
 AtZNuc=   6.0000000   6.0000000   1.0000000   1.0000000   1.0000000   8.0000000   1.0000000  15.0000000  15.0000000   8.0000000

  Atom        11          12          13          14          15          16          17          18          19
 IAtWgt=           1          16           1          16           1          16           1          16          16
 AtmWgt=   1.0078250  15.9949146   1.0078250  15.9949146   1.0078250  15.9949146   1.0078250  15.9949146  15.9949146
 NucSpn=           1           0           1           0           1           0           1           0           0
 AtZEff=  -0.0000000  -0.0000000  -0.0000000  -0.0000000  -0.0000000  -0.0000000  -0.0000000  -0.0000000  -0.0000000
 NQMom=    0.0000000   0.0000000   0.0000000   0.0000000   0.0000000   0.0000000   0.0000000   0.0000000   0.0000000
 NMagM=    2.7928460   0.0000000   2.7928460   0.0000000   2.7928460   0.0000000   2.7928460   0.0000000   0.0000000
 AtZNuc=   1.0000000   8.0000000   1.0000000   8.0000000   1.0000000   8.0000000   1.0000000   8.0000000   8.0000000
 Leave Link  101 at Thu Jan 21 22:39:21 2021, MaxMem=   536870912 cpu:               0.9 elap:               0.1
 (Enter /usr/local//g16/l202.exe)
                          Input orientation:                          
 ---------------------------------------------------------------------
 Center     Atomic      Atomic             Coordinates (Angstroms)
 Number     Number       Type             X           Y           Z
 ---------------------------------------------------------------------
      1          6           0       -0.026400    0.804160   -0.144190
      2          6           0       -0.003020    1.952510    0.870160
      3          1           0        0.014780    1.575110    1.896700
      4          1           0        0.872170    2.581240    0.693690
      5          1           0       -0.908570    2.547670    0.737470
      6          8           0       -0.010240    1.379990   -1.436430
      7          1           0       -0.120590    0.664280   -2.081730
      8         15           0        1.464320   -0.282970    0.090940
      9         15           0       -1.613430   -0.166640    0.100370
     10          8           0        1.706890   -0.822280   -1.407770
     11          1           0        2.238660   -1.632060   -1.422430
     12          8           0        2.750080    0.668310    0.344120
     13          1           0        3.018300    0.637890    1.274620
     14          8           0       -1.372760   -1.087750    1.385380
     15          1           0       -0.439070   -1.413090    1.450140
     16          8           0       -1.508280   -1.129540   -1.218960
     17          1           0       -2.394920   -1.311280   -1.565730
     18          8           0       -2.851960    0.641380    0.155050
     19          8           0        1.302840   -1.330830    1.152590
 ---------------------------------------------------------------------
                    Distance matrix (angstroms):
                    1          2          3          4          5
     1  C    0.000000
     2  C    1.532371   0.000000
     3  H    2.182038   1.093861   0.000000
     4  H    2.160436   1.091971   1.787358   0.000000
     5  H    2.143683   1.091716   1.772643   1.781594   0.000000
     6  O    1.414824   2.376592   3.338930   2.599819   2.626084
     7  H    1.944865   3.222889   4.083606   3.516143   3.480799
     8  P    1.859942   2.785254   2.968905   2.986243   3.749817
     9  P    1.876413   2.770703   2.985224   3.752477   2.875796
    10  O    2.691883   3.976458   4.419303   4.086177   4.774856
    11  H    3.563645   4.809391   5.123300   4.908885   5.660421
    12  O    2.822365   3.083091   3.273325   2.703340   4.131881
    13  H    3.363163   3.319667   3.207257   2.952958   4.399557
    14  O    2.780574   3.374140   3.045905   4.356562   3.721765
    15  H    2.761953   3.442932   3.055280   4.271562   4.051660
    16  O    2.662761   4.016125   4.397975   4.805690   4.208223
    17  H    3.479332   4.723036   5.111391   5.561526   4.733441
    18  O    2.846020   3.216660   3.481867   4.233478   2.783868
    19  O    2.829611   3.544765   3.264550   3.962368   4.483907
                    6          7          8          9         10
     6  O    0.000000
     7  H    0.969964   0.000000
     8  P    2.696780   2.851266   0.000000
     9  P    2.706296   2.771382   3.079962   0.000000
    10  O    2.792732   2.450258   1.611157   3.705250   0.000000
    11  H    3.759015   3.357665   2.170238   4.393742   0.968885
    12  O    3.360984   3.758392   1.619325   4.449357   2.525712
    13  H    4.131895   4.595477   2.159615   4.845519   3.323719
    14  O    3.988585   4.081469   3.220601   1.599255   4.166102
    15  H    4.039490   4.109866   2.597593   2.180513   3.622409
    16  O    2.930727   2.426488   3.356914   1.636724   3.235332
    17  H    3.598104   3.056415   4.323854   2.167214   4.133874
    18  O    3.339719   3.530452   4.414613   1.479812   5.036648
    19  O    3.971870   4.058010   1.500396   3.311667   2.641462
                   11         12         13         14         15
    11  H    0.000000
    12  O    2.945157   0.000000
    13  H    3.610345   0.968864   0.000000
    14  O    4.606780   4.600628   4.719270   0.000000
    15  H    3.933172   3.965625   4.023771   0.990867   0.000000
    16  O    3.785959   4.879458   5.461838   2.608198   2.889240
    17  H    4.646880   5.834152   6.416370   3.131106   3.595996
    18  O    5.794082   5.605294   5.976069   2.586819   3.423469
    19  O    2.756307   2.597054   2.614106   2.696686   1.769054
                   16         17         18         19
    16  O    0.000000
    17  H    0.969231   0.000000
    18  O    2.613338   2.642508   0.000000
    19  O    3.683363   4.589453   4.706066   0.000000
 Stoichiometry    C2H8O7P2
 Framework group  C1[X(C2H8O7P2)]
 Deg. of freedom    51
 Full point group                 C1      NOp   1
 Largest Abelian subgroup         C1      NOp   1
 Largest concise Abelian subgroup C1      NOp   1
                         Standard orientation:                         
 ---------------------------------------------------------------------
 Center     Atomic      Atomic             Coordinates (Angstroms)
 Number     Number       Type             X           Y           Z
 ---------------------------------------------------------------------
      1          6           0        0.026403    0.804161    0.144190
      2          6           0        0.003026    1.952511   -0.870160
      3          1           0       -0.014775    1.575111   -1.896700
      4          1           0       -0.872163    2.581243   -0.693690
      5          1           0        0.908577    2.547669   -0.737470
      6          8           0        0.010244    1.379991    1.436430
      7          1           0        0.120593    0.664281    2.081730
      8         15           0       -1.464319   -0.282966   -0.090940
      9         15           0        1.613431   -0.166642   -0.100370
     10          8           0       -1.706890   -0.822275    1.407770
     11          1           0       -2.238662   -1.632054    1.422430
     12          8           0       -2.750077    0.668317   -0.344120
     13          1           0       -3.018297    0.637898   -1.274620
     14          8           0        1.372759   -1.087752   -1.385380
     15          1           0        0.439068   -1.413090   -1.450140
     16          8           0        1.508279   -1.129542    1.218960
     17          1           0        2.394919   -1.311284    1.565730
     18          8           0        2.851963    0.641375   -0.155050
     19          8           0       -1.302841   -1.330826   -1.152590
 ---------------------------------------------------------------------
 Rotational constants (GHZ):           1.3574319           0.6941555           0.6608461
 Leave Link  202 at Thu Jan 21 22:39:21 2021, MaxMem=   536870912 cpu:               0.0 elap:               0.0
 (Enter /usr/local//g16/l301.exe)
 Standard basis: 6-31G(d,p) (6D, 7F)
 Ernie: Thresh=  0.10000D-02 Tol=  0.10000D-05 Strict=F.
 AO basis set in the form of general basis input (Overlap normalization):
      1 0
 S   6 1.00       0.000000000000
      0.3047524880D+04  0.1834737132D-02
      0.4573695180D+03  0.1403732281D-01
      0.1039486850D+03  0.6884262226D-01
      0.2921015530D+02  0.2321844432D+00
      0.9286662960D+01  0.4679413484D+00
      0.3163926960D+01  0.3623119853D+00
 SP   3 1.00       0.000000000000
      0.7868272350D+01 -0.1193324198D+00  0.6899906659D-01
      0.1881288540D+01 -0.1608541517D+00  0.3164239610D+00
      0.5442492580D+00  0.1143456438D+01  0.7443082909D+00
 SP   1 1.00       0.000000000000
      0.1687144782D+00  0.1000000000D+01  0.1000000000D+01
 D   1 1.00       0.000000000000
      0.8000000000D+00  0.1000000000D+01
 ****
      2 0
 S   6 1.00       0.000000000000
      0.3047524880D+04  0.1834737132D-02
      0.4573695180D+03  0.1403732281D-01
      0.1039486850D+03  0.6884262226D-01
      0.2921015530D+02  0.2321844432D+00
      0.9286662960D+01  0.4679413484D+00
      0.3163926960D+01  0.3623119853D+00
 SP   3 1.00       0.000000000000
      0.7868272350D+01 -0.1193324198D+00  0.6899906659D-01
      0.1881288540D+01 -0.1608541517D+00  0.3164239610D+00
      0.5442492580D+00  0.1143456438D+01  0.7443082909D+00
 SP   1 1.00       0.000000000000
      0.1687144782D+00  0.1000000000D+01  0.1000000000D+01
 D   1 1.00       0.000000000000
      0.8000000000D+00  0.1000000000D+01
 ****
      3 0
 S   3 1.00       0.000000000000
      0.1873113696D+02  0.3349460434D-01
      0.2825394365D+01  0.2347269535D+00
      0.6401216923D+00  0.8137573261D+00
 S   1 1.00       0.000000000000
      0.1612777588D+00  0.1000000000D+01
 P   1 1.00       0.000000000000
      0.1100000000D+01  0.1000000000D+01
 ****
      4 0
 S   3 1.00       0.000000000000
      0.1873113696D+02  0.3349460434D-01
      0.2825394365D+01  0.2347269535D+00
      0.6401216923D+00  0.8137573261D+00
 S   1 1.00       0.000000000000
      0.1612777588D+00  0.1000000000D+01
 P   1 1.00       0.000000000000
      0.1100000000D+01  0.1000000000D+01
 ****
      5 0
 S   3 1.00       0.000000000000
      0.1873113696D+02  0.3349460434D-01
      0.2825394365D+01  0.2347269535D+00
      0.6401216923D+00  0.8137573261D+00
 S   1 1.00       0.000000000000
      0.1612777588D+00  0.1000000000D+01
 P   1 1.00       0.000000000000
      0.1100000000D+01  0.1000000000D+01
 ****
      6 0
 S   6 1.00       0.000000000000
      0.5484671660D+04  0.1831074430D-02
      0.8252349460D+03  0.1395017220D-01
      0.1880469580D+03  0.6844507810D-01
      0.5296450000D+02  0.2327143360D+00
      0.1689757040D+02  0.4701928980D+00
      0.5799635340D+01  0.3585208530D+00
 SP   3 1.00       0.000000000000
      0.1553961625D+02 -0.1107775495D+00  0.7087426823D-01
      0.3599933586D+01 -0.1480262627D+00  0.3397528391D+00
      0.1013761750D+01  0.1130767015D+01  0.7271585773D+00
 SP   1 1.00       0.000000000000
      0.2700058226D+00  0.1000000000D+01  0.1000000000D+01
 D   1 1.00       0.000000000000
      0.8000000000D+00  0.1000000000D+01
 ****
      7 0
 S   3 1.00       0.000000000000
      0.1873113696D+02  0.3349460434D-01
      0.2825394365D+01  0.2347269535D+00
      0.6401216923D+00  0.8137573261D+00
 S   1 1.00       0.000000000000
      0.1612777588D+00  0.1000000000D+01
 P   1 1.00       0.000000000000
      0.1100000000D+01  0.1000000000D+01
 ****
      8 0
 S   6 1.00       0.000000000000
      0.1941330000D+05  0.1851598923D-02
      0.2909420000D+04  0.1420619174D-01
      0.6613640000D+03  0.6999945928D-01
      0.1857590000D+03  0.2400788603D+00
      0.5919430000D+02  0.4847617180D+00
      0.2003100000D+02  0.3351998050D+00
 SP   6 1.00       0.000000000000
      0.3394780000D+03 -0.2782170105D-02  0.4564616191D-02
      0.8101010000D+02 -0.3604990135D-01  0.3369357188D-01
      0.2587800000D+02 -0.1166310044D+00  0.1397548834D+00
      0.9452210000D+01  0.9683280364D-01  0.3393617168D+00
      0.3665660000D+01  0.6144180231D+00  0.4509206237D+00
      0.1467460000D+01  0.4037980152D+00  0.2385858009D+00
 SP   3 1.00       0.000000000000
      0.2156230000D+01 -0.2529241139D+00 -0.1776531273D-01
      0.7489970000D+00  0.3285184468D-01  0.2740581964D+00
      0.2831450000D+00  0.1081254762D+01  0.7854215630D+00
 SP   1 1.00       0.000000000000
      0.9983170000D-01  0.1000000000D+01  0.1000000000D+01
 D   1 1.00       0.000000000000
      0.5500000000D+00  0.1000000000D+01
 ****
      9 0
 S   6 1.00       0.000000000000
      0.1941330000D+05  0.1851598923D-02
      0.2909420000D+04  0.1420619174D-01
      0.6613640000D+03  0.6999945928D-01
      0.1857590000D+03  0.2400788603D+00
      0.5919430000D+02  0.4847617180D+00
      0.2003100000D+02  0.3351998050D+00
 SP   6 1.00       0.000000000000
      0.3394780000D+03 -0.2782170105D-02  0.4564616191D-02
      0.8101010000D+02 -0.3604990135D-01  0.3369357188D-01
      0.2587800000D+02 -0.1166310044D+00  0.1397548834D+00
      0.9452210000D+01  0.9683280364D-01  0.3393617168D+00
      0.3665660000D+01  0.6144180231D+00  0.4509206237D+00
      0.1467460000D+01  0.4037980152D+00  0.2385858009D+00
 SP   3 1.00       0.000000000000
      0.2156230000D+01 -0.2529241139D+00 -0.1776531273D-01
      0.7489970000D+00  0.3285184468D-01  0.2740581964D+00
      0.2831450000D+00  0.1081254762D+01  0.7854215630D+00
 SP   1 1.00       0.000000000000
      0.9983170000D-01  0.1000000000D+01  0.1000000000D+01
 D   1 1.00       0.000000000000
      0.5500000000D+00  0.1000000000D+01
 ****
     10 0
 S   6 1.00       0.000000000000
      0.5484671660D+04  0.1831074430D-02
      0.8252349460D+03  0.1395017220D-01
      0.1880469580D+03  0.6844507810D-01
      0.5296450000D+02  0.2327143360D+00
      0.1689757040D+02  0.4701928980D+00
      0.5799635340D+01  0.3585208530D+00
 SP   3 1.00       0.000000000000
      0.1553961625D+02 -0.1107775495D+00  0.7087426823D-01
      0.3599933586D+01 -0.1480262627D+00  0.3397528391D+00
      0.1013761750D+01  0.1130767015D+01  0.7271585773D+00
 SP   1 1.00       0.000000000000
      0.2700058226D+00  0.1000000000D+01  0.1000000000D+01
 D   1 1.00       0.000000000000
      0.8000000000D+00  0.1000000000D+01
 ****
     11 0
 S   3 1.00       0.000000000000
      0.1873113696D+02  0.3349460434D-01
      0.2825394365D+01  0.2347269535D+00
      0.6401216923D+00  0.8137573261D+00
 S   1 1.00       0.000000000000
      0.1612777588D+00  0.1000000000D+01
 P   1 1.00       0.000000000000
      0.1100000000D+01  0.1000000000D+01
 ****
     12 0
 S   6 1.00       0.000000000000
      0.5484671660D+04  0.1831074430D-02
      0.8252349460D+03  0.1395017220D-01
      0.1880469580D+03  0.6844507810D-01
      0.5296450000D+02  0.2327143360D+00
      0.1689757040D+02  0.4701928980D+00
      0.5799635340D+01  0.3585208530D+00
 SP   3 1.00       0.000000000000
      0.1553961625D+02 -0.1107775495D+00  0.7087426823D-01
      0.3599933586D+01 -0.1480262627D+00  0.3397528391D+00
      0.1013761750D+01  0.1130767015D+01  0.7271585773D+00
 SP   1 1.00       0.000000000000
      0.2700058226D+00  0.1000000000D+01  0.1000000000D+01
 D   1 1.00       0.000000000000
      0.8000000000D+00  0.1000000000D+01
 ****
     13 0
 S   3 1.00       0.000000000000
      0.1873113696D+02  0.3349460434D-01
      0.2825394365D+01  0.2347269535D+00
      0.6401216923D+00  0.8137573261D+00
 S   1 1.00       0.000000000000
      0.1612777588D+00  0.1000000000D+01
 P   1 1.00       0.000000000000
      0.1100000000D+01  0.1000000000D+01
 ****
     14 0
 S   6 1.00       0.000000000000
      0.5484671660D+04  0.1831074430D-02
      0.8252349460D+03  0.1395017220D-01
      0.1880469580D+03  0.6844507810D-01
      0.5296450000D+02  0.2327143360D+00
      0.1689757040D+02  0.4701928980D+00
      0.5799635340D+01  0.3585208530D+00
 SP   3 1.00       0.000000000000
      0.1553961625D+02 -0.1107775495D+00  0.7087426823D-01
      0.3599933586D+01 -0.1480262627D+00  0.3397528391D+00
      0.1013761750D+01  0.1130767015D+01  0.7271585773D+00
 SP   1 1.00       0.000000000000
      0.2700058226D+00  0.1000000000D+01  0.1000000000D+01
 D   1 1.00       0.000000000000
      0.8000000000D+00  0.1000000000D+01
 ****
     15 0
 S   3 1.00       0.000000000000
      0.1873113696D+02  0.3349460434D-01
      0.2825394365D+01  0.2347269535D+00
      0.6401216923D+00  0.8137573261D+00
 S   1 1.00       0.000000000000
      0.1612777588D+00  0.1000000000D+01
 P   1 1.00       0.000000000000
      0.1100000000D+01  0.1000000000D+01
 ****
     16 0
 S   6 1.00       0.000000000000
      0.5484671660D+04  0.1831074430D-02
      0.8252349460D+03  0.1395017220D-01
      0.1880469580D+03  0.6844507810D-01
      0.5296450000D+02  0.2327143360D+00
      0.1689757040D+02  0.4701928980D+00
      0.5799635340D+01  0.3585208530D+00
 SP   3 1.00       0.000000000000
      0.1553961625D+02 -0.1107775495D+00  0.7087426823D-01
      0.3599933586D+01 -0.1480262627D+00  0.3397528391D+00
      0.1013761750D+01  0.1130767015D+01  0.7271585773D+00
 SP   1 1.00       0.000000000000
      0.2700058226D+00  0.1000000000D+01  0.1000000000D+01
 D   1 1.00       0.000000000000
      0.8000000000D+00  0.1000000000D+01
 ****
     17 0
 S   3 1.00       0.000000000000
      0.1873113696D+02  0.3349460434D-01
      0.2825394365D+01  0.2347269535D+00
      0.6401216923D+00  0.8137573261D+00
 S   1 1.00       0.000000000000
      0.1612777588D+00  0.1000000000D+01
 P   1 1.00       0.000000000000
      0.1100000000D+01  0.1000000000D+01
 ****
     18 0
 S   6 1.00       0.000000000000
      0.5484671660D+04  0.1831074430D-02
      0.8252349460D+03  0.1395017220D-01
      0.1880469580D+03  0.6844507810D-01
      0.5296450000D+02  0.2327143360D+00
      0.1689757040D+02  0.4701928980D+00
      0.5799635340D+01  0.3585208530D+00
 SP   3 1.00       0.000000000000
      0.1553961625D+02 -0.1107775495D+00  0.7087426823D-01
      0.3599933586D+01 -0.1480262627D+00  0.3397528391D+00
      0.1013761750D+01  0.1130767015D+01  0.7271585773D+00
 SP   1 1.00       0.000000000000
      0.2700058226D+00  0.1000000000D+01  0.1000000000D+01
 D   1 1.00       0.000000000000
      0.8000000000D+00  0.1000000000D+01
 ****
     19 0
 S   6 1.00       0.000000000000
      0.5484671660D+04  0.1831074430D-02
      0.8252349460D+03  0.1395017220D-01
      0.1880469580D+03  0.6844507810D-01
      0.5296450000D+02  0.2327143360D+00
      0.1689757040D+02  0.4701928980D+00
      0.5799635340D+01  0.3585208530D+00
 SP   3 1.00       0.000000000000
      0.1553961625D+02 -0.1107775495D+00  0.7087426823D-01
      0.3599933586D+01 -0.1480262627D+00  0.3397528391D+00
      0.1013761750D+01  0.1130767015D+01  0.7271585773D+00
 SP   1 1.00       0.000000000000
      0.2700058226D+00  0.1000000000D+01  0.1000000000D+01
 D   1 1.00       0.000000000000
      0.8000000000D+00  0.1000000000D+01
 ****

 There are   213 symmetry adapted cartesian basis functions of A   symmetry.
 There are   213 symmetry adapted basis functions of A   symmetry.
   213 basis functions,   412 primitive gaussians,   213 cartesian basis functions
    53 alpha electrons       53 beta electrons
       nuclear repulsion energy      1023.6350291807 Hartrees.
 IExCor=  402 DFT=T Ex+Corr=B3LYP ExCW=0 ScaHFX=  0.200000
 ScaDFX=  0.800000  0.720000  1.000000  0.810000 ScalE2=  1.000000  1.000000
 IRadAn=      5 IRanWt=     -1 IRanGd=            0 ICorTp=0 IEmpDi=  4
 NAtoms=   19 NActive=   19 NUniq=   19 SFac= 1.00D+00 NAtFMM=   60 NAOKFM=F Big=F
 Integral buffers will be    131072 words long.
 Raffenetti 2 integral format.
 Two-electron integral symmetry is turned on.
 Leave Link  301 at Thu Jan 21 22:39:21 2021, MaxMem=   536870912 cpu:               0.2 elap:               0.0
 (Enter /usr/local//g16/l302.exe)
 NPDir=0 NMtPBC=     1 NCelOv=     1 NCel=       1 NClECP=     1 NCelD=      1
         NCelK=      1 NCelE2=     1 NClLst=     1 CellRange=     0.0.
 One-electron integrals computed using PRISM.
 One-electron integral symmetry used in STVInt
 NBasis=   213 RedAO= T EigKep=  3.99D-03  NBF=   213
 NBsUse=   213 1.00D-06 EigRej= -1.00D+00 NBFU=   213
 Precomputing XC quadrature grid using
 IXCGrd= 4 IRadAn=           5 IRanWt=          -1 IRanGd=           0 AccXCQ= 0.00D+00.
 Generated NRdTot=       0 NPtTot=           0 NUsed=           0 NTot=          32
 NSgBfM=   213   213   213   213   213 MxSgAt=    19 MxSgA2=    19.
 Leave Link  302 at Thu Jan 21 22:39:21 2021, MaxMem=   536870912 cpu:               1.9 elap:               0.2
 (Enter /usr/local//g16/l303.exe)
 DipDrv:  MaxL=1.
 Leave Link  303 at Thu Jan 21 22:39:21 2021, MaxMem=   536870912 cpu:               0.2 elap:               0.0
 (Enter /usr/local//g16/l401.exe)
 ExpMin= 9.98D-02 ExpMax= 1.94D+04 ExpMxC= 2.91D+03 IAcc=3 IRadAn=         5 AccDes= 0.00D+00
 Harris functional with IExCor=  402 and IRadAn=       5 diagonalized for initial guess.
 HarFok:  IExCor=  402 AccDes= 0.00D+00 IRadAn=         5 IDoV= 1 UseB2=F ITyADJ=14
 ICtDFT=  3500011 ScaDFX=  1.000000  1.000000  1.000000  1.000000
 FoFCou: FMM=F IPFlag=           0 FMFlag=      100000 FMFlg1=           0
         NFxFlg=           0 DoJE=T BraDBF=F KetDBF=T FulRan=T
         wScrn=  0.000000 ICntrl=       500 IOpCl=  0 I1Cent=   200000004 NGrid=           0
         NMat0=    1 NMatS0=      1 NMatT0=    0 NMatD0=    1 NMtDS0=    0 NMtDT0=    0
 Petite list used in FoFCou.
 Harris En= -1290.59507393412    
 JPrj=0 DoOrth=F DoCkMO=F.
 Leave Link  401 at Thu Jan 21 22:39:23 2021, MaxMem=   536870912 cpu:              10.7 elap:               1.3
 (Enter /usr/local//g16/l502.exe)
 Integral symmetry usage will be decided dynamically.
 Closed shell SCF:
 Using DIIS extrapolation, IDIIS=  1040.
 NGot=   536870912 LenX=   536776148 LenY=   536730338
 Requested convergence on RMS density matrix=1.00D-08 within 128 cycles.
 Requested convergence on MAX density matrix=1.00D-06.
 Requested convergence on             energy=1.00D-06.
 No special actions if energy rises.
 Fock matrices will be formed incrementally for  20 cycles.
 Integral accuracy reduced to 1.0D-05 until final iterations.

 Cycle   1  Pass 0  IDiag  1:
 FoFJK:  IHMeth= 1 ICntrl=       0 DoSepK=F KAlg= 0 I1Cent=           0 FoldK=F
 IRaf= 920000000 NMat=       1 IRICut=       1 DoRegI=T DoRafI=F ISym2E= 0 IDoP0=0 IntGTp=1.
 FoFCou: FMM=F IPFlag=           0 FMFlag=      100000 FMFlg1=           0
         NFxFlg=           0 DoJE=F BraDBF=F KetDBF=F FulRan=T
         wScrn=  0.000000 ICntrl=         0 IOpCl=  0 I1Cent=           0 NGrid=           0
         NMat0=    1 NMatS0=      1 NMatT0=    0 NMatD0=    1 NMtDS0=    0 NMtDT0=    0
 Symmetry not used in FoFCou.
 E= -1289.85428384278    
 DIIS: error= 3.01D-02 at cycle   1 NSaved=   1.
 NSaved= 1 IEnMin= 1 EnMin= -1289.85428384278     IErMin= 1 ErrMin= 3.01D-02
 ErrMax= 3.01D-02  0.00D+00 EMaxC= 1.00D-01 BMatC= 8.06D-01 BMatP= 8.06D-01
 IDIUse=3 WtCom= 6.99D-01 WtEn= 3.01D-01
 Coeff-Com:  0.100D+01
 Coeff-En:   0.100D+01
 Coeff:      0.100D+01
 Gap=     0.249 Goal=   None    Shift=    0.000
 GapD=    0.249 DampG=1.000 DampE=0.500 DampFc=0.5000 IDamp=-1.
 Damping current iteration by 5.00D-01
 RMSDP=9.78D-03 MaxDP=4.13D-01              OVMax= 3.62D-01

 Cycle   2  Pass 0  IDiag  1:
 RMSU=  4.89D-03    CP:  9.99D-01
 E= -1289.94616703608     Delta-E=       -0.091883193306 Rises=F Damp=T
 DIIS: error= 1.40D-02 at cycle   2 NSaved=   2.
 NSaved= 2 IEnMin= 2 EnMin= -1289.94616703608     IErMin= 2 ErrMin= 1.40D-02
 ErrMax= 1.40D-02  0.00D+00 EMaxC= 1.00D-01 BMatC= 1.30D-01 BMatP= 8.06D-01
 IDIUse=3 WtCom= 8.60D-01 WtEn= 1.40D-01
 Coeff-Com:  0.257D+00 0.743D+00
 Coeff-En:   0.433D+00 0.567D+00
 Coeff:      0.281D+00 0.719D+00
 Gap=     0.308 Goal=   None    Shift=    0.000
 RMSDP=2.95D-03 MaxDP=1.27D-01 DE=-9.19D-02 OVMax= 2.17D-01

 Cycle   3  Pass 0  IDiag  1:
 RMSU=  1.97D-03    CP:  9.96D-01  5.51D-01
 E= -1290.39158833222     Delta-E=       -0.445421296140 Rises=F Damp=F
 DIIS: error= 1.27D-02 at cycle   3 NSaved=   3.
 NSaved= 3 IEnMin= 3 EnMin= -1290.39158833222     IErMin= 3 ErrMin= 1.27D-02
 ErrMax= 1.27D-02  0.00D+00 EMaxC= 1.00D-01 BMatC= 7.63D-02 BMatP= 1.30D-01
 IDIUse=3 WtCom= 8.73D-01 WtEn= 1.27D-01
 Coeff-Com:  0.137D+00 0.458D+00 0.404D+00
 Coeff-En:   0.000D+00 0.000D+00 0.100D+01
 Coeff:      0.120D+00 0.400D+00 0.480D+00
 Gap=     0.288 Goal=   None    Shift=    0.000
 RMSDP=1.49D-03 MaxDP=4.66D-02 DE=-4.45D-01 OVMax= 7.08D-02

 Cycle   4  Pass 0  IDiag  1:
 RMSU=  7.97D-04    CP:  9.99D-01  6.46D-01  4.10D-01
 E= -1290.44851866072     Delta-E=       -0.056930328498 Rises=F Damp=F
 DIIS: error= 4.47D-03 at cycle   4 NSaved=   4.
 NSaved= 4 IEnMin= 4 EnMin= -1290.44851866072     IErMin= 4 ErrMin= 4.47D-03
 ErrMax= 4.47D-03  0.00D+00 EMaxC= 1.00D-01 BMatC= 9.35D-03 BMatP= 7.63D-02
 IDIUse=3 WtCom= 9.55D-01 WtEn= 4.47D-02
 Coeff-Com:  0.154D-01 0.716D-01 0.265D+00 0.648D+00
 Coeff-En:   0.000D+00 0.000D+00 0.947D-01 0.905D+00
 Coeff:      0.147D-01 0.684D-01 0.257D+00 0.660D+00
 Gap=     0.286 Goal=   None    Shift=    0.000
 RMSDP=4.09D-04 MaxDP=1.62D-02 DE=-5.69D-02 OVMax= 2.19D-02

 Cycle   5  Pass 0  IDiag  1:
 RMSU=  2.32D-04    CP:  9.99D-01  6.29D-01  5.23D-01  7.01D-01
 E= -1290.45470606445     Delta-E=       -0.006187403726 Rises=F Damp=F
 DIIS: error= 1.44D-03 at cycle   5 NSaved=   5.
 NSaved= 5 IEnMin= 5 EnMin= -1290.45470606445     IErMin= 5 ErrMin= 1.44D-03
 ErrMax= 1.44D-03  0.00D+00 EMaxC= 1.00D-01 BMatC= 7.77D-04 BMatP= 9.35D-03
 IDIUse=3 WtCom= 9.86D-01 WtEn= 1.44D-02
 Coeff-Com: -0.570D-03 0.757D-02 0.112D+00 0.374D+00 0.507D+00
 Coeff-En:   0.000D+00 0.000D+00 0.000D+00 0.118D-01 0.988D+00
 Coeff:     -0.562D-03 0.746D-02 0.110D+00 0.369D+00 0.514D+00
 Gap=     0.280 Goal=   None    Shift=    0.000
 RMSDP=1.40D-04 MaxDP=3.83D-03 DE=-6.19D-03 OVMax= 4.89D-03

 Cycle   6  Pass 0  IDiag  1:
 RMSU=  5.53D-05    CP:  9.99D-01  6.32D-01  5.27D-01  7.64D-01  4.97D-01
 E= -1290.45535038967     Delta-E=       -0.000644325221 Rises=F Damp=F
 DIIS: error= 2.53D-04 at cycle   6 NSaved=   6.
 NSaved= 6 IEnMin= 6 EnMin= -1290.45535038967     IErMin= 6 ErrMin= 2.53D-04
 ErrMax= 2.53D-04  0.00D+00 EMaxC= 1.00D-01 BMatC= 3.76D-05 BMatP= 7.77D-04
 IDIUse=3 WtCom= 9.97D-01 WtEn= 2.53D-03
 Coeff-Com: -0.686D-03-0.529D-03 0.357D-01 0.123D+00 0.249D+00 0.594D+00
 Coeff-En:   0.000D+00 0.000D+00 0.000D+00 0.000D+00 0.000D+00 0.100D+01
 Coeff:     -0.684D-03-0.527D-03 0.356D-01 0.122D+00 0.249D+00 0.595D+00
 Gap=     0.280 Goal=   None    Shift=    0.000
 RMSDP=3.00D-05 MaxDP=1.25D-03 DE=-6.44D-04 OVMax= 1.14D-03

 Cycle   7  Pass 0  IDiag  1:
 RMSU=  1.83D-05    CP:  9.99D-01  6.31D-01  5.27D-01  7.63D-01  5.42D-01
                    CP:  6.48D-01
 E= -1290.45538173292     Delta-E=       -0.000031343255 Rises=F Damp=F
 DIIS: error= 5.90D-05 at cycle   7 NSaved=   7.
 NSaved= 7 IEnMin= 7 EnMin= -1290.45538173292     IErMin= 7 ErrMin= 5.90D-05
 ErrMax= 5.90D-05  0.00D+00 EMaxC= 1.00D-01 BMatC= 1.81D-06 BMatP= 3.76D-05
 IDIUse=1 WtCom= 1.00D+00 WtEn= 0.00D+00
 Coeff-Com: -0.196D-03-0.126D-02 0.640D-02 0.204D-01 0.678D-01 0.245D+00
 Coeff-Com:  0.662D+00
 Coeff:     -0.196D-03-0.126D-02 0.640D-02 0.204D-01 0.678D-01 0.245D+00
 Coeff:      0.662D+00
 Gap=     0.281 Goal=   None    Shift=    0.000
 RMSDP=6.95D-06 MaxDP=3.10D-04 DE=-3.13D-05 OVMax= 2.14D-04

 Initial convergence to 1.0D-05 achieved.  Increase integral accuracy.
 Cycle   8  Pass 1  IDiag  1:
 E= -1290.45542071938     Delta-E=       -0.000038986452 Rises=F Damp=F
 DIIS: error= 1.79D-05 at cycle   1 NSaved=   1.
 NSaved= 1 IEnMin= 1 EnMin= -1290.45542071938     IErMin= 1 ErrMin= 1.79D-05
 ErrMax= 1.79D-05  0.00D+00 EMaxC= 1.00D-01 BMatC= 2.17D-07 BMatP= 2.17D-07
 IDIUse=1 WtCom= 1.00D+00 WtEn= 0.00D+00
 Coeff-Com:  0.100D+01
 Coeff:      0.100D+01
 Gap=     0.281 Goal=   None    Shift=    0.000
 RMSDP=6.95D-06 MaxDP=3.10D-04 DE=-3.90D-05 OVMax= 2.19D-04

 Cycle   9  Pass 1  IDiag  1:
 RMSU=  5.75D-06    CP:  1.00D+00
 E= -1290.45542042608     Delta-E=        0.000000293295 Rises=F Damp=F
 DIIS: error= 3.31D-05 at cycle   2 NSaved=   2.
 NSaved= 2 IEnMin= 1 EnMin= -1290.45542071938     IErMin= 1 ErrMin= 1.79D-05
 ErrMax= 3.31D-05  0.00D+00 EMaxC= 1.00D-01 BMatC= 6.09D-07 BMatP= 2.17D-07
 IDIUse=1 WtCom= 1.00D+00 WtEn= 0.00D+00
 Coeff-Com:  0.634D+00 0.366D+00
 Coeff:      0.634D+00 0.366D+00
 Gap=     0.281 Goal=   None    Shift=    0.000
 RMSDP=3.26D-06 MaxDP=1.18D-04 DE= 2.93D-07 OVMax= 1.58D-04

 Cycle  10  Pass 1  IDiag  1:
 RMSU=  1.78D-06    CP:  1.00D+00  5.27D-01
 E= -1290.45542088014     Delta-E=       -0.000000454063 Rises=F Damp=F
 DIIS: error= 3.95D-06 at cycle   3 NSaved=   3.
 NSaved= 3 IEnMin= 3 EnMin= -1290.45542088014     IErMin= 3 ErrMin= 3.95D-06
 ErrMax= 3.95D-06  0.00D+00 EMaxC= 1.00D-01 BMatC= 8.72D-09 BMatP= 2.17D-07
 IDIUse=1 WtCom= 1.00D+00 WtEn= 0.00D+00
 Coeff-Com:  0.156D+00 0.138D+00 0.706D+00
 Coeff:      0.156D+00 0.138D+00 0.706D+00
 Gap=     0.281 Goal=   None    Shift=    0.000
 RMSDP=6.08D-07 MaxDP=1.93D-05 DE=-4.54D-07 OVMax= 2.72D-05

 Cycle  11  Pass 1  IDiag  1:
 RMSU=  5.10D-07    CP:  1.00D+00  5.70D-01  8.76D-01
 E= -1290.45542088346     Delta-E=       -0.000000003312 Rises=F Damp=F
 DIIS: error= 2.31D-06 at cycle   4 NSaved=   4.
 NSaved= 4 IEnMin= 4 EnMin= -1290.45542088346     IErMin= 4 ErrMin= 2.31D-06
 ErrMax= 2.31D-06  0.00D+00 EMaxC= 1.00D-01 BMatC= 4.56D-09 BMatP= 8.72D-09
 IDIUse=1 WtCom= 1.00D+00 WtEn= 0.00D+00
 Coeff-Com:  0.127D-01 0.378D-01 0.461D+00 0.488D+00
 Coeff:      0.127D-01 0.378D-01 0.461D+00 0.488D+00
 Gap=     0.281 Goal=   None    Shift=    0.000
 RMSDP=2.76D-07 MaxDP=7.49D-06 DE=-3.31D-09 OVMax= 1.04D-05

 Cycle  12  Pass 1  IDiag  1:
 RMSU=  1.00D-07    CP:  1.00D+00  5.64D-01  9.19D-01  5.25D-01
 E= -1290.45542088691     Delta-E=       -0.000000003450 Rises=F Damp=F
 DIIS: error= 3.63D-07 at cycle   5 NSaved=   5.
 NSaved= 5 IEnMin= 5 EnMin= -1290.45542088691     IErMin= 5 ErrMin= 3.63D-07
 ErrMax= 3.63D-07  0.00D+00 EMaxC= 1.00D-01 BMatC= 1.29D-10 BMatP= 4.56D-09
 IDIUse=1 WtCom= 1.00D+00 WtEn= 0.00D+00
 Coeff-Com: -0.123D-02 0.126D-01 0.201D+00 0.250D+00 0.537D+00
 Coeff:     -0.123D-02 0.126D-01 0.201D+00 0.250D+00 0.537D+00
 Gap=     0.281 Goal=   None    Shift=    0.000
 RMSDP=5.07D-08 MaxDP=1.87D-06 DE=-3.45D-09 OVMax= 1.90D-06

 Cycle  13  Pass 1  IDiag  1:
 RMSU=  2.81D-08    CP:  1.00D+00  5.65D-01  9.21D-01  5.38D-01  6.00D-01
 E= -1290.45542088699     Delta-E=       -0.000000000084 Rises=F Damp=F
 DIIS: error= 1.70D-07 at cycle   6 NSaved=   6.
 NSaved= 6 IEnMin= 6 EnMin= -1290.45542088699     IErMin= 6 ErrMin= 1.70D-07
 ErrMax= 1.70D-07  0.00D+00 EMaxC= 1.00D-01 BMatC= 8.55D-12 BMatP= 1.29D-10
 IDIUse=1 WtCom= 1.00D+00 WtEn= 0.00D+00
 Coeff-Com: -0.146D-02 0.439D-02 0.777D-01 0.103D+00 0.285D+00 0.531D+00
 Coeff:     -0.146D-02 0.439D-02 0.777D-01 0.103D+00 0.285D+00 0.531D+00
 Gap=     0.281 Goal=   None    Shift=    0.000
 RMSDP=1.35D-08 MaxDP=4.26D-07 DE=-8.41D-11 OVMax= 4.68D-07

 Cycle  14  Pass 1  IDiag  1:
 RMSU=  9.28D-09    CP:  1.00D+00  5.66D-01  9.21D-01  5.39D-01  6.29D-01
                    CP:  6.70D-01
 E= -1290.45542088702     Delta-E=       -0.000000000027 Rises=F Damp=F
 DIIS: error= 3.11D-08 at cycle   7 NSaved=   7.
 NSaved= 7 IEnMin= 7 EnMin= -1290.45542088702     IErMin= 7 ErrMin= 3.11D-08
 ErrMax= 3.11D-08  0.00D+00 EMaxC= 1.00D-01 BMatC= 6.42D-13 BMatP= 8.55D-12
 IDIUse=1 WtCom= 1.00D+00 WtEn= 0.00D+00
 Coeff-Com: -0.685D-03 0.163D-02 0.296D-01 0.405D-01 0.121D+00 0.286D+00
 Coeff-Com:  0.522D+00
 Coeff:     -0.685D-03 0.163D-02 0.296D-01 0.405D-01 0.121D+00 0.286D+00
 Coeff:      0.522D+00
 Gap=     0.281 Goal=   None    Shift=    0.000
 RMSDP=4.57D-09 MaxDP=1.55D-07 DE=-2.73D-11 OVMax= 1.81D-07

 SCF Done:  E(RB3LYP) =  -1290.45542089     A.U. after   14 cycles
            NFock= 14  Conv=0.46D-08     -V/T= 2.0062
 KE= 1.282518338893D+03 PE=-5.098681725054D+03 EE= 1.502072936093D+03
 Leave Link  502 at Thu Jan 21 22:39:47 2021, MaxMem=   536870912 cpu:             191.8 elap:              24.0
 (Enter /usr/local//g16/l601.exe)
 Copying SCF densities to generalized density rwf, IOpCl= 0 IROHF=0.

 **********************************************************************

            Population analysis using the SCF density.

 **********************************************************************

 Orbital symmetries:
       Occupied  (A) (A) (A) (A) (A) (A) (A) (A) (A) (A) (A) (A)
                 (A) (A) (A) (A) (A) (A) (A) (A) (A) (A) (A) (A)
                 (A) (A) (A) (A) (A) (A) (A) (A) (A) (A) (A) (A)
                 (A) (A) (A) (A) (A) (A) (A) (A) (A) (A) (A) (A)
                 (A) (A) (A) (A) (A)
       Virtual   (A) (A) (A) (A) (A) (A) (A) (A) (A) (A) (A) (A)
                 (A) (A) (A) (A) (A) (A) (A) (A) (A) (A) (A) (A)
                 (A) (A) (A) (A) (A) (A) (A) (A) (A) (A) (A) (A)
                 (A) (A) (A) (A) (A) (A) (A) (A) (A) (A) (A) (A)
                 (A) (A) (A) (A) (A) (A) (A) (A) (A) (A) (A) (A)
                 (A) (A) (A) (A) (A) (A) (A) (A) (A) (A) (A) (A)
                 (A) (A) (A) (A) (A) (A) (A) (A) (A) (A) (A) (A)
                 (A) (A) (A) (A) (A) (A) (A) (A) (A) (A) (A) (A)
                 (A) (A) (A) (A) (A) (A) (A) (A) (A) (A) (A) (A)
                 (A) (A) (A) (A) (A) (A) (A) (A) (A) (A) (A) (A)
                 (A) (A) (A) (A) (A) (A) (A) (A) (A) (A) (A) (A)
                 (A) (A) (A) (A) (A) (A) (A) (A) (A) (A) (A) (A)
                 (A) (A) (A) (A) (A) (A) (A) (A) (A) (A) (A) (A)
                 (A) (A) (A) (A)
 The electronic state is 1-A.
 Alpha  occ. eigenvalues --  -77.24950 -77.21955 -19.21615 -19.21420 -19.19329
 Alpha  occ. eigenvalues --  -19.17871 -19.17421 -19.14886 -19.11079 -10.28326
 Alpha  occ. eigenvalues --  -10.20368  -6.69938  -6.66948  -4.86367  -4.86263
 Alpha  occ. eigenvalues --   -4.86017  -4.83376  -4.83243  -4.83069  -1.10960
 Alpha  occ. eigenvalues --   -1.07848  -1.06335  -1.05042  -1.03206  -0.99527
 Alpha  occ. eigenvalues --   -0.96009  -0.78865  -0.68974  -0.65340  -0.60369
 Alpha  occ. eigenvalues --   -0.57856  -0.56126  -0.54520  -0.51533  -0.49490
 Alpha  occ. eigenvalues --   -0.45486  -0.45292  -0.43894  -0.42451  -0.41698
 Alpha  occ. eigenvalues --   -0.41188  -0.40434  -0.39781  -0.38243  -0.37574
 Alpha  occ. eigenvalues --   -0.36783  -0.34830  -0.34208  -0.33580  -0.32807
 Alpha  occ. eigenvalues --   -0.30233  -0.29111  -0.27374
 Alpha virt. eigenvalues --    0.00682   0.03032   0.04748   0.05105   0.07537
 Alpha virt. eigenvalues --    0.10141   0.10492   0.11339   0.12150   0.13402
 Alpha virt. eigenvalues --    0.13550   0.14984   0.16298   0.18476   0.19924
 Alpha virt. eigenvalues --    0.20614   0.22460   0.26230   0.30290   0.32272
 Alpha virt. eigenvalues --    0.35984   0.37311   0.39444   0.40594   0.41476
 Alpha virt. eigenvalues --    0.43747   0.49129   0.52607   0.55209   0.56612
 Alpha virt. eigenvalues --    0.58739   0.64673   0.68699   0.69368   0.72122
 Alpha virt. eigenvalues --    0.73931   0.74372   0.76613   0.78656   0.80442
 Alpha virt. eigenvalues --    0.81738   0.82944   0.84679   0.85391   0.86257
 Alpha virt. eigenvalues --    0.87036   0.89452   0.91519   0.92274   0.92648
 Alpha virt. eigenvalues --    0.94936   0.95126   0.96445   0.97112   0.98969
 Alpha virt. eigenvalues --    1.00822   1.01601   1.02082   1.03314   1.04906
 Alpha virt. eigenvalues --    1.06956   1.08459   1.11285   1.13380   1.15077
 Alpha virt. eigenvalues --    1.16617   1.17428   1.19312   1.24166   1.25511
 Alpha virt. eigenvalues --    1.27258   1.31493   1.35451   1.37290   1.40051
 Alpha virt. eigenvalues --    1.41885   1.44743   1.49239   1.51113   1.53076
 Alpha virt. eigenvalues --    1.54617   1.56181   1.57069   1.60063   1.63682
 Alpha virt. eigenvalues --    1.64651   1.65833   1.66315   1.70812   1.73824
 Alpha virt. eigenvalues --    1.77265   1.78229   1.79746   1.80412   1.83108
 Alpha virt. eigenvalues --    1.83183   1.84295   1.85453   1.89056   1.89133
 Alpha virt. eigenvalues --    1.97252   1.98015   2.01044   2.03198   2.04165
 Alpha virt. eigenvalues --    2.05956   2.06877   2.10510   2.12388   2.14593
 Alpha virt. eigenvalues --    2.17614   2.17653   2.28073   2.28979   2.31556
 Alpha virt. eigenvalues --    2.36549   2.38722   2.39198   2.41482   2.44733
 Alpha virt. eigenvalues --    2.46363   2.48927   2.50804   2.57501   2.58334
 Alpha virt. eigenvalues --    2.59261   2.60110   2.62776   2.63548   2.64917
 Alpha virt. eigenvalues --    2.67824   2.68536   2.68827   2.70878   2.77141
 Alpha virt. eigenvalues --    2.78122   2.81861   2.86036   2.87619   2.92300
 Alpha virt. eigenvalues --    2.99176   3.20956   3.31668   3.32140   3.34837
 Alpha virt. eigenvalues --    3.41043   3.42691   3.44970   3.45465   3.51062
 Alpha virt. eigenvalues --    3.54522   3.75299   3.90104   3.98622   4.01310
 Alpha virt. eigenvalues --    4.04610   4.17542   4.21152   4.32638   4.56631
     Molecular Orbital Coefficients:
                           1         2         3         4         5
                           O         O         O         O         O
     Eigenvalues --   -77.24950 -77.21955 -19.21615 -19.21420 -19.19329
   1 1   C  1S         -0.00004  -0.00004  -0.00004  -0.00002  -0.00004
   2        2S         -0.00003  -0.00004  -0.00023  -0.00016  -0.00021
   3        2PX        -0.00004   0.00004   0.00004  -0.00002   0.00000
   4        2PY        -0.00001  -0.00002  -0.00005  -0.00002  -0.00003
   5        2PZ        -0.00000   0.00000   0.00006  -0.00006   0.00007
   6        3S          0.00095   0.00093   0.00181   0.00089   0.00164
   7        3PX        -0.00046   0.00041  -0.00101  -0.00030   0.00051
   8        3PY        -0.00014  -0.00012   0.00036  -0.00011  -0.00031
   9        3PZ         0.00005   0.00001   0.00020   0.00013  -0.00070
  10        4XX        -0.00014  -0.00013  -0.00003   0.00004  -0.00003
  11        4YY        -0.00011  -0.00009  -0.00000  -0.00002   0.00000
  12        4ZZ        -0.00007  -0.00007   0.00002  -0.00002  -0.00006
  13        4XY        -0.00004   0.00003   0.00003   0.00002  -0.00002
  14        4XZ        -0.00002   0.00002   0.00001   0.00001  -0.00002
  15        4YZ        -0.00000   0.00001   0.00001  -0.00000  -0.00000
  16 2   C  1S         -0.00001  -0.00002   0.00001   0.00000   0.00001
  17        2S         -0.00002  -0.00005   0.00008  -0.00002   0.00006
  18        2PX         0.00002  -0.00003   0.00002  -0.00002  -0.00001
  19        2PY         0.00003   0.00004   0.00002  -0.00001   0.00002
  20        2PZ        -0.00002  -0.00002  -0.00004   0.00001  -0.00003
  21        3S          0.00002   0.00012  -0.00063   0.00003  -0.00055
  22        3PX         0.00001   0.00006   0.00005   0.00001   0.00004
  23        3PY         0.00014   0.00008   0.00016   0.00003   0.00037
  24        3PZ        -0.00012  -0.00012  -0.00025  -0.00004   0.00002
  25        4XX        -0.00002  -0.00002   0.00002   0.00005   0.00002
  26        4YY        -0.00004  -0.00005   0.00000   0.00003  -0.00002
  27        4ZZ        -0.00003  -0.00005  -0.00001  -0.00000   0.00001
  28        4XY        -0.00000   0.00000  -0.00002   0.00001   0.00001
  29        4XZ         0.00002  -0.00001   0.00002   0.00000  -0.00001
  30        4YZ         0.00001   0.00001   0.00002   0.00000   0.00001
  31 3   H  1S          0.00001   0.00000   0.00006  -0.00002   0.00006
  32        2S         -0.00019  -0.00020  -0.00013   0.00006   0.00013
  33        3PX         0.00002  -0.00003  -0.00000  -0.00001   0.00000
  34        3PY         0.00002   0.00002  -0.00000  -0.00000  -0.00001
  35        3PZ        -0.00002  -0.00002  -0.00000   0.00001   0.00001
  36 4   H  1S          0.00001  -0.00000   0.00000   0.00006   0.00001
  37        2S         -0.00019   0.00004   0.00013  -0.00004   0.00001
  38        3PX         0.00001   0.00001  -0.00000  -0.00003  -0.00001
  39        3PY         0.00004  -0.00001  -0.00001  -0.00000  -0.00002
  40        3PZ        -0.00001   0.00001   0.00000   0.00002   0.00000
  41 5   H  1S         -0.00001  -0.00001   0.00002  -0.00001   0.00002
  42        2S          0.00001  -0.00023   0.00004  -0.00004  -0.00014
  43        3PX        -0.00000  -0.00001  -0.00000   0.00001   0.00001
  44        3PY        -0.00001   0.00004  -0.00001   0.00001   0.00000
  45        3PZ         0.00001  -0.00001   0.00001   0.00001  -0.00000
  46 6   O  1S          0.00000  -0.00000   0.00003   0.00001   0.00001
  47        2S          0.00002   0.00000   0.00005  -0.00016  -0.00017
  48        2PX         0.00000   0.00000   0.00000   0.00006  -0.00000
  49        2PY         0.00002   0.00002  -0.00005   0.00003  -0.00001
  50        2PZ         0.00001   0.00001  -0.00003   0.00002  -0.00001
  51        3S         -0.00028  -0.00017  -0.00025   0.00053   0.00091
  52        3PX         0.00008  -0.00009  -0.00004  -0.00025   0.00005
  53        3PY         0.00004  -0.00001   0.00007  -0.00007  -0.00018
  54        3PZ         0.00013   0.00014   0.00041  -0.00010   0.00002
  55        4XX         0.00000  -0.00001   0.00007  -0.00011  -0.00009
  56        4YY         0.00001   0.00000   0.00003  -0.00016  -0.00008
  57        4ZZ        -0.00000  -0.00002  -0.00002  -0.00015  -0.00011
  58        4XY         0.00003  -0.00003   0.00000   0.00003  -0.00002
  59        4XZ        -0.00002   0.00002  -0.00002   0.00001   0.00002
  60        4YZ        -0.00000  -0.00001  -0.00003   0.00002  -0.00001
  61 7   H  1S         -0.00001  -0.00003   0.00011  -0.00002   0.00001
  62        2S         -0.00013  -0.00018  -0.00042   0.00013  -0.00028
  63        3PX         0.00002  -0.00002   0.00003   0.00002  -0.00002
  64        3PY         0.00002   0.00002  -0.00004   0.00003  -0.00002
  65        3PZ         0.00003   0.00004   0.00003  -0.00002   0.00005
  66 8   P  1S          0.99625   0.00005   0.00001   0.00001  -0.00000
  67        2S          0.01418   0.00000  -0.00000  -0.00002  -0.00004
  68        2PX        -0.00001   0.00001  -0.00000   0.00005  -0.00001
  69        2PY         0.00001   0.00001   0.00002  -0.00004   0.00001
  70        2PZ         0.00002  -0.00000  -0.00006   0.00000  -0.00002
  71        3S         -0.02723   0.00010   0.00035   0.00020  -0.00013
  72        3PX        -0.00011  -0.00008   0.00008  -0.00008   0.00003
  73        3PY        -0.00008  -0.00006   0.00001   0.00015  -0.00001
  74        3PZ        -0.00002   0.00002   0.00017   0.00004   0.00015
  75        4S          0.00279  -0.00011  -0.00343  -0.00257   0.00037
  76        4PX         0.00021  -0.00012  -0.00094   0.00113   0.00017
  77        4PY        -0.00002   0.00010  -0.00043  -0.00145   0.00006
  78        4PZ        -0.00017   0.00003  -0.00193  -0.00109  -0.00007
  79        5XX         0.00942  -0.00009  -0.00003   0.00016   0.00002
  80        5YY         0.00946  -0.00001  -0.00008   0.00010  -0.00007
  81        5ZZ         0.00948  -0.00001   0.00023  -0.00012  -0.00006
  82        5XY        -0.00003  -0.00002  -0.00000  -0.00018  -0.00005
  83        5XZ        -0.00002  -0.00001  -0.00006   0.00007   0.00006
  84        5YZ         0.00002   0.00000  -0.00017  -0.00003  -0.00001
  85 9   P  1S         -0.00005   0.99625  -0.00000   0.00000   0.00001
  86        2S         -0.00002   0.01417  -0.00007   0.00003   0.00001
  87        2PX        -0.00001  -0.00003   0.00000   0.00000   0.00003
  88        2PY         0.00001  -0.00002   0.00000  -0.00000   0.00004
  89        2PZ         0.00000   0.00001   0.00000   0.00000  -0.00005
  90        3S          0.00004  -0.02723  -0.00022   0.00013   0.00034
  91        3PX         0.00009   0.00011   0.00002  -0.00002  -0.00019
  92        3PY        -0.00007  -0.00007  -0.00003   0.00002  -0.00002
  93        3PZ         0.00000  -0.00004  -0.00003  -0.00002   0.00011
  94        4S          0.00019   0.00287   0.00150  -0.00050  -0.00351
  95        4PX        -0.00008  -0.00026  -0.00084   0.00039   0.00194
  96        4PY         0.00002  -0.00005  -0.00017   0.00023   0.00102
  97        4PZ         0.00005   0.00003   0.00014  -0.00005  -0.00082
  98        5XX        -0.00011   0.00941  -0.00003   0.00001  -0.00004
  99        5YY        -0.00002   0.00946  -0.00004   0.00001   0.00003
 100        5ZZ        -0.00002   0.00947  -0.00005   0.00000   0.00013
 101        5XY         0.00002   0.00003   0.00001  -0.00000   0.00000
 102        5XZ         0.00000  -0.00000  -0.00000   0.00000  -0.00004
 103        5YZ        -0.00000  -0.00001   0.00000  -0.00000  -0.00023
 104 10  O  1S         -0.00001   0.00001   0.99269  -0.00058   0.00003
 105        2S         -0.00008   0.00004   0.02579  -0.00022  -0.00003
 106        2PX         0.00001   0.00001  -0.00045   0.00001   0.00000
 107        2PY        -0.00001   0.00000  -0.00056  -0.00004  -0.00001
 108        2PZ         0.00009  -0.00001  -0.00065  -0.00003  -0.00000
 109        3S          0.00089  -0.00018   0.01271   0.00123   0.00007
 110        3PX        -0.00009  -0.00006   0.00038   0.00002   0.00004
 111        3PY        -0.00000  -0.00005   0.00047   0.00045   0.00005
 112        3PZ        -0.00037   0.00006  -0.00031  -0.00016   0.00001
 113        4XX        -0.00004   0.00004  -0.00823  -0.00015   0.00002
 114        4YY        -0.00003   0.00007  -0.00823  -0.00013  -0.00001
 115        4ZZ        -0.00026   0.00004  -0.00828  -0.00012  -0.00001
 116        4XY         0.00002   0.00001  -0.00002   0.00002   0.00000
 117        4XZ         0.00005   0.00001  -0.00001  -0.00003   0.00001
 118        4YZ         0.00009   0.00001   0.00002   0.00000   0.00000
 119 11  H  1S         -0.00010  -0.00003   0.00042   0.00003   0.00001
 120        2S         -0.00019   0.00000  -0.00090   0.00028   0.00002
 121        3PX        -0.00000  -0.00001  -0.00004   0.00001   0.00000
 122        3PY        -0.00000  -0.00002  -0.00006   0.00004  -0.00000
 123        3PZ        -0.00000  -0.00001   0.00004  -0.00003   0.00000
 124 12  O  1S         -0.00002  -0.00000   0.00050   0.99271  -0.00002
 125        2S         -0.00008   0.00000  -0.00010   0.02583  -0.00001
 126        2PX        -0.00006  -0.00001   0.00000   0.00029  -0.00000
 127        2PY         0.00006  -0.00000  -0.00005  -0.00044   0.00000
 128        2PZ         0.00001   0.00000  -0.00001  -0.00084  -0.00000
 129        3S          0.00091  -0.00003   0.00079   0.01245   0.00004
 130        3PX         0.00023   0.00003   0.00017   0.00039  -0.00000
 131        3PY        -0.00026   0.00000   0.00011  -0.00012  -0.00000
 132        3PZ        -0.00010  -0.00001   0.00019   0.00049   0.00001
 133        4XX        -0.00021   0.00001  -0.00005  -0.00821  -0.00001
 134        4YY        -0.00013  -0.00000  -0.00011  -0.00820  -0.00002
 135        4ZZ         0.00002  -0.00001  -0.00014  -0.00818  -0.00002
 136        4XY         0.00013  -0.00001   0.00002   0.00004   0.00000
 137        4XZ        -0.00001  -0.00000   0.00000   0.00002   0.00000
 138        4YZ         0.00003   0.00000   0.00005  -0.00001  -0.00000
 139 13  H  1S         -0.00010  -0.00000   0.00006   0.00041   0.00001
 140        2S         -0.00024  -0.00000  -0.00025  -0.00094  -0.00002
 141        3PX         0.00000  -0.00000  -0.00001  -0.00006  -0.00000
 142        3PY        -0.00000   0.00000   0.00002   0.00003   0.00000
 143        3PZ        -0.00001   0.00000   0.00002  -0.00008   0.00000
 144 14  O  1S          0.00000  -0.00000   0.00001  -0.00000  -0.00010
 145        2S          0.00003  -0.00003   0.00012  -0.00005  -0.00021
 146        2PX        -0.00000  -0.00000  -0.00000  -0.00000   0.00002
 147        2PY         0.00001  -0.00006   0.00000   0.00001   0.00001
 148        2PZ         0.00001  -0.00008   0.00001  -0.00001  -0.00003
 149        3S         -0.00009   0.00063  -0.00065   0.00033   0.00114
 150        3PX         0.00004  -0.00001   0.00006  -0.00003  -0.00012
 151        3PY        -0.00007   0.00017  -0.00005  -0.00004   0.00010
 152        3PZ        -0.00007   0.00028  -0.00014   0.00006   0.00045
 153        4XX        -0.00000   0.00003   0.00009  -0.00004  -0.00009
 154        4YY         0.00002  -0.00009   0.00009  -0.00004  -0.00011
 155        4ZZ         0.00001  -0.00017   0.00007  -0.00003  -0.00009
 156        4XY         0.00001  -0.00001   0.00000   0.00000  -0.00002
 157        4XZ         0.00001  -0.00003   0.00000   0.00000  -0.00001
 158        4YZ        -0.00001  -0.00014   0.00001  -0.00001   0.00004
 159 15  H  1S          0.00000  -0.00004   0.00002  -0.00001  -0.00010
 160        2S         -0.00018  -0.00019  -0.00004  -0.00016   0.00043
 161        3PX         0.00001   0.00000   0.00001  -0.00001   0.00001
 162        3PY         0.00000   0.00000   0.00000  -0.00001   0.00001
 163        3PZ        -0.00001  -0.00000   0.00001  -0.00001   0.00005
 164 16  O  1S          0.00002  -0.00000  -0.00002  -0.00000   0.99269
 165        2S          0.00009  -0.00003   0.00007  -0.00006   0.02575
 166        2PX        -0.00002  -0.00004   0.00002   0.00000   0.00091
 167        2PY         0.00001  -0.00004  -0.00001   0.00000   0.00019
 168        2PZ        -0.00001   0.00005  -0.00001   0.00001  -0.00016
 169        3S         -0.00035   0.00065  -0.00047   0.00034   0.01279
 170        3PX         0.00014   0.00026  -0.00007  -0.00002  -0.00044
 171        3PY        -0.00007   0.00017  -0.00000   0.00001   0.00030
 172        3PZ         0.00009  -0.00020   0.00013  -0.00008  -0.00053
 173        4XX         0.00007   0.00005   0.00007  -0.00004  -0.00826
 174        4YY         0.00007  -0.00011   0.00004  -0.00004  -0.00825
 175        4ZZ         0.00007  -0.00017   0.00003  -0.00003  -0.00825
 176        4XY         0.00001  -0.00002  -0.00001  -0.00001  -0.00002
 177        4XZ        -0.00000   0.00004  -0.00001   0.00000   0.00002
 178        4YZ         0.00001   0.00013  -0.00001   0.00000   0.00003
 179 17  H  1S         -0.00003  -0.00012   0.00003  -0.00001   0.00041
 180        2S         -0.00003  -0.00022  -0.00001   0.00001  -0.00097
 181        3PX         0.00002   0.00002   0.00001  -0.00000   0.00005
 182        3PY        -0.00000   0.00000  -0.00001   0.00000  -0.00005
 183        3PZ         0.00000  -0.00000  -0.00001   0.00000   0.00007
 184 18  O  1S         -0.00000  -0.00000  -0.00000   0.00000  -0.00001
 185        2S         -0.00001  -0.00010  -0.00002   0.00004   0.00010
 186        2PX         0.00000   0.00016  -0.00002   0.00001   0.00001
 187        2PY        -0.00000   0.00012   0.00001  -0.00000  -0.00002
 188        2PZ         0.00000  -0.00000   0.00001  -0.00000  -0.00003
 189        3S          0.00002   0.00073   0.00011  -0.00021  -0.00050
 190        3PX        -0.00001  -0.00034   0.00008  -0.00002  -0.00017
 191        3PY        -0.00001  -0.00028  -0.00002   0.00001  -0.00005
 192        3PZ        -0.00001   0.00001  -0.00003   0.00001   0.00020
 193        4XX        -0.00000  -0.00015  -0.00002   0.00003   0.00013
 194        4YY        -0.00000  -0.00004  -0.00002   0.00003   0.00011
 195        4ZZ        -0.00001   0.00003  -0.00003   0.00003   0.00008
 196        4XY         0.00001  -0.00012  -0.00000  -0.00000   0.00002
 197        4XZ         0.00000   0.00001   0.00000  -0.00000  -0.00003
 198        4YZ         0.00000   0.00000   0.00000  -0.00000   0.00001
 199 19  O  1S          0.00001  -0.00000  -0.00003  -0.00001  -0.00001
 200        2S         -0.00003   0.00000  -0.00000   0.00010  -0.00005
 201        2PX         0.00001   0.00000  -0.00004   0.00001  -0.00002
 202        2PY        -0.00012   0.00001   0.00003   0.00000   0.00000
 203        2PZ        -0.00013   0.00000  -0.00003   0.00002  -0.00004
 204        3S          0.00043   0.00005   0.00005  -0.00048   0.00019
 205        3PX        -0.00004  -0.00001   0.00017  -0.00012   0.00005
 206        3PY         0.00024  -0.00004  -0.00001   0.00010   0.00005
 207        3PZ         0.00028  -0.00002   0.00035   0.00000   0.00018
 208        4XX         0.00007  -0.00002   0.00002   0.00007  -0.00005
 209        4YY        -0.00008  -0.00001   0.00001   0.00009  -0.00004
 210        4ZZ        -0.00007  -0.00001   0.00006   0.00008  -0.00003
 211        4XY         0.00002  -0.00001   0.00000   0.00001  -0.00000
 212        4XZ         0.00001  -0.00001   0.00001  -0.00003   0.00002
 213        4YZ        -0.00015  -0.00001   0.00004   0.00002   0.00004
                           6         7         8         9        10
                           O         O         O         O         O
     Eigenvalues --   -19.17871 -19.17421 -19.14886 -19.11079 -10.28326
   1 1   C  1S         -0.00002   0.00000   0.00001  -0.00001   0.99324
   2        2S          0.00012  -0.00003  -0.00001  -0.00007   0.04985
   3        2PX         0.00000   0.00003  -0.00003   0.00000  -0.00018
   4        2PY         0.00019  -0.00001   0.00001  -0.00005   0.00020
   5        2PZ         0.00029   0.00001   0.00003  -0.00003   0.00052
   6        3S         -0.00086   0.00003  -0.00022   0.00014  -0.01993
   7        3PX        -0.00005   0.00026  -0.00011   0.00002   0.00031
   8        3PY        -0.00069  -0.00027  -0.00053   0.00029  -0.00107
   9        3PZ        -0.00082   0.00007  -0.00019   0.00003   0.00027
  10        4XX         0.00001   0.00004   0.00005   0.00005  -0.00868
  11        4YY         0.00005   0.00002   0.00004  -0.00000  -0.00862
  12        4ZZ         0.00014   0.00001   0.00001  -0.00000  -0.00840
  13        4XY        -0.00000  -0.00005   0.00005  -0.00000  -0.00000
  14        4XZ        -0.00000   0.00000   0.00000  -0.00002  -0.00000
  15        4YZ         0.00010   0.00003   0.00002  -0.00000   0.00006
  16 2   C  1S          0.00001  -0.00003  -0.00002  -0.00001   0.00123
  17        2S          0.00010  -0.00011  -0.00008  -0.00004  -0.00022
  18        2PX         0.00001  -0.00006   0.00005  -0.00002  -0.00001
  19        2PY         0.00003   0.00004   0.00004   0.00003  -0.00008
  20        2PZ         0.00009   0.00001   0.00001   0.00001  -0.00005
  21        3S          0.00018   0.00050   0.00043  -0.00002   0.00542
  22        3PX        -0.00006   0.00045  -0.00040   0.00024   0.00004
  23        3PY        -0.00030  -0.00039  -0.00024  -0.00015  -0.00105
  24        3PZ        -0.00039   0.00006   0.00027  -0.00011   0.00183
  25        4XX         0.00002  -0.00006  -0.00006   0.00001  -0.00010
  26        4YY         0.00001  -0.00003  -0.00004  -0.00000  -0.00028
  27        4ZZ        -0.00008  -0.00004  -0.00003  -0.00003  -0.00023
  28        4XY         0.00000   0.00000  -0.00001  -0.00000   0.00000
  29        4XZ         0.00000   0.00000  -0.00000   0.00001  -0.00001
  30        4YZ         0.00000  -0.00001  -0.00002  -0.00000   0.00015
  31 3   H  1S         -0.00005  -0.00006  -0.00007  -0.00005  -0.00004
  32        2S         -0.00030   0.00005   0.00027   0.00003  -0.00032
  33        3PX         0.00000  -0.00001   0.00001  -0.00001   0.00000
  34        3PY         0.00002  -0.00000  -0.00000   0.00001   0.00001
  35        3PZ        -0.00001   0.00000   0.00002   0.00001  -0.00000
  36 4   H  1S          0.00007   0.00003  -0.00004   0.00003  -0.00021
  37        2S          0.00008   0.00030  -0.00023   0.00011  -0.00047
  38        3PX        -0.00000   0.00002   0.00001   0.00001  -0.00001
  39        3PY         0.00000  -0.00002   0.00003   0.00000  -0.00004
  40        3PZ         0.00005  -0.00001  -0.00001   0.00000   0.00001
  41 5   H  1S          0.00006  -0.00007   0.00002   0.00001  -0.00022
  42        2S          0.00015  -0.00009   0.00025   0.00005  -0.00044
  43        3PX         0.00000  -0.00002  -0.00002   0.00002   0.00001
  44        3PY        -0.00001   0.00002  -0.00002  -0.00001  -0.00005
  45        3PZ         0.00006  -0.00000  -0.00001   0.00002   0.00002
  46 6   O  1S          0.99276   0.00003   0.00002  -0.00004  -0.00014
  47        2S          0.02590   0.00005   0.00003  -0.00011  -0.00038
  48        2PX         0.00011   0.00002  -0.00002  -0.00004  -0.00001
  49        2PY        -0.00106  -0.00001  -0.00002   0.00002   0.00007
  50        2PZ        -0.00008  -0.00001  -0.00001   0.00001   0.00012
  51        3S          0.01195  -0.00015   0.00004   0.00036   0.00360
  52        3PX         0.00000  -0.00007   0.00010   0.00014   0.00001
  53        3PY        -0.00020   0.00006   0.00005  -0.00009  -0.00016
  54        3PZ        -0.00038   0.00005  -0.00004  -0.00003  -0.00071
  55        4XX        -0.00805   0.00004   0.00003  -0.00007  -0.00012
  56        4YY        -0.00801   0.00003   0.00003  -0.00010  -0.00034
  57        4ZZ        -0.00806   0.00003   0.00005  -0.00011  -0.00069
  58        4XY        -0.00001  -0.00001   0.00000  -0.00000   0.00001
  59        4XZ         0.00001   0.00001  -0.00000  -0.00001   0.00001
  60        4YZ        -0.00011  -0.00001  -0.00001   0.00002  -0.00028
  61 7   H  1S          0.00027   0.00002   0.00002  -0.00006   0.00007
  62        2S         -0.00127  -0.00010  -0.00010   0.00006  -0.00024
  63        3PX         0.00002   0.00001  -0.00001  -0.00002  -0.00002
  64        3PY        -0.00012  -0.00000  -0.00000   0.00002  -0.00003
  65        3PZ         0.00019   0.00001   0.00002  -0.00001  -0.00012
  66 8   P  1S          0.00000  -0.00000   0.00002   0.00000   0.00001
  67        2S          0.00004  -0.00003  -0.00005   0.00005  -0.00007
  68        2PX        -0.00000   0.00000  -0.00000  -0.00001  -0.00002
  69        2PY        -0.00000   0.00001  -0.00001  -0.00000  -0.00003
  70        2PZ        -0.00000   0.00001   0.00001   0.00000  -0.00001
  71        3S          0.00026  -0.00027   0.00085   0.00022   0.00006
  72        3PX         0.00010  -0.00006   0.00006   0.00010   0.00042
  73        3PY         0.00003  -0.00010  -0.00004   0.00006   0.00040
  74        3PZ         0.00005  -0.00005  -0.00018  -0.00000   0.00004
  75        4S         -0.00093   0.00118  -0.00329  -0.00110   0.00413
  76        4PX        -0.00008   0.00060  -0.00059  -0.00076   0.00079
  77        4PY        -0.00060  -0.00035   0.00117   0.00040   0.00206
  78        4PZ        -0.00019   0.00010   0.00142  -0.00023   0.00048
  79        5XX        -0.00004   0.00002  -0.00026   0.00006   0.00003
  80        5YY         0.00001   0.00004  -0.00013   0.00005   0.00006
  81        5ZZ        -0.00001   0.00008  -0.00018   0.00001  -0.00006
  82        5XY         0.00003  -0.00000   0.00004   0.00000   0.00000
  83        5XZ        -0.00000  -0.00003   0.00000   0.00002  -0.00004
  84        5YZ        -0.00001   0.00004   0.00013   0.00001   0.00008
  85 9   P  1S          0.00000   0.00001  -0.00000   0.00001   0.00000
  86        2S          0.00002  -0.00001  -0.00004  -0.00013  -0.00009
  87        2PX         0.00000   0.00002  -0.00001   0.00001   0.00002
  88        2PY        -0.00000   0.00003   0.00000   0.00000  -0.00003
  89        2PZ         0.00001   0.00006   0.00001  -0.00000  -0.00000
  90        3S          0.00015   0.00038  -0.00030   0.00057  -0.00003
  91        3PX        -0.00009  -0.00021   0.00008   0.00011  -0.00036
  92        3PY         0.00005  -0.00005  -0.00004   0.00011   0.00040
  93        3PZ        -0.00002  -0.00018  -0.00008   0.00002   0.00006
  94        4S         -0.00065  -0.00324   0.00089  -0.00154   0.00420
  95        4PX         0.00013   0.00064  -0.00052  -0.00237  -0.00165
  96        4PY        -0.00032   0.00065  -0.00032  -0.00177   0.00084
  97        4PZ        -0.00014   0.00130   0.00008  -0.00001   0.00051
  98        5XX        -0.00003  -0.00009   0.00000  -0.00021   0.00000
  99        5YY         0.00003   0.00005   0.00002  -0.00021   0.00005
 100        5ZZ        -0.00002   0.00017   0.00005  -0.00028  -0.00008
 101        5XY        -0.00002  -0.00003   0.00002   0.00003  -0.00005
 102        5XZ         0.00001   0.00009   0.00002   0.00000  -0.00001
 103        5YZ         0.00000   0.00021   0.00004   0.00001   0.00006
 104 10  O  1S         -0.00004   0.00005   0.00003  -0.00003   0.00005
 105        2S         -0.00009   0.00013  -0.00005  -0.00012   0.00019
 106        2PX        -0.00001   0.00002  -0.00003  -0.00002  -0.00006
 107        2PY         0.00001  -0.00001   0.00003   0.00001  -0.00001
 108        2PZ        -0.00002  -0.00003   0.00002   0.00002   0.00003
 109        3S          0.00045  -0.00062   0.00022   0.00057  -0.00121
 110        3PX         0.00006  -0.00016   0.00017   0.00015   0.00016
 111        3PY         0.00010  -0.00002  -0.00011   0.00002  -0.00011
 112        3PZ         0.00004   0.00020  -0.00031  -0.00017   0.00004
 113        4XX        -0.00004   0.00010   0.00000  -0.00009   0.00015
 114        4YY        -0.00006   0.00011  -0.00004  -0.00008   0.00008
 115        4ZZ        -0.00007   0.00007   0.00004  -0.00006   0.00015
 116        4XY        -0.00001   0.00000  -0.00000  -0.00000   0.00008
 117        4XZ         0.00001   0.00002  -0.00002  -0.00002  -0.00002
 118        4YZ        -0.00001  -0.00000  -0.00002   0.00001   0.00000
 119 11  H  1S          0.00001   0.00001  -0.00003  -0.00002   0.00005
 120        2S         -0.00005  -0.00012   0.00024   0.00011   0.00024
 121        3PX        -0.00000  -0.00001   0.00000   0.00001   0.00000
 122        3PY         0.00001  -0.00002   0.00001   0.00001   0.00000
 123        3PZ        -0.00000  -0.00000  -0.00003   0.00000  -0.00002
 124 12  O  1S         -0.00009  -0.00002   0.00004   0.00002   0.00006
 125        2S         -0.00018  -0.00003  -0.00003   0.00005   0.00030
 126        2PX        -0.00004   0.00000   0.00000  -0.00001   0.00002
 127        2PY        -0.00001   0.00000   0.00002  -0.00001   0.00001
 128        2PZ        -0.00001  -0.00000   0.00002   0.00000   0.00003
 129        3S          0.00082   0.00014   0.00018  -0.00025  -0.00157
 130        3PX         0.00027  -0.00000   0.00014  -0.00000  -0.00049
 131        3PY        -0.00001  -0.00000  -0.00023   0.00004   0.00003
 132        3PZ         0.00016   0.00004  -0.00017  -0.00004  -0.00032
 133        4XX        -0.00011  -0.00002   0.00003   0.00004   0.00016
 134        4YY        -0.00014  -0.00002   0.00001   0.00003   0.00020
 135        4ZZ        -0.00017  -0.00004   0.00000   0.00005   0.00014
 136        4XY        -0.00000   0.00000  -0.00001   0.00000   0.00004
 137        4XZ         0.00001  -0.00000  -0.00000   0.00000   0.00001
 138        4YZ        -0.00000   0.00000  -0.00003   0.00000   0.00003
 139 13  H  1S          0.00003   0.00001  -0.00007   0.00000   0.00003
 140        2S          0.00009   0.00005   0.00025  -0.00012  -0.00042
 141        3PX         0.00000   0.00000   0.00002  -0.00001  -0.00004
 142        3PY         0.00000   0.00000  -0.00002   0.00000   0.00001
 143        3PZ         0.00004   0.00001  -0.00002  -0.00001  -0.00004
 144 14  O  1S         -0.00001   0.99266   0.00001   0.00001   0.00002
 145        2S          0.00002   0.02567  -0.00010   0.00006   0.00010
 146        2PX        -0.00000  -0.00062   0.00002  -0.00002   0.00000
 147        2PY         0.00000   0.00013   0.00003  -0.00002  -0.00001
 148        2PZ         0.00001   0.00054   0.00004   0.00006  -0.00000
 149        3S         -0.00007   0.01332   0.00057  -0.00024  -0.00063
 150        3PX        -0.00000  -0.00012  -0.00038   0.00025   0.00005
 151        3PY         0.00001   0.00020  -0.00021   0.00018  -0.00019
 152        3PZ        -0.00003   0.00026  -0.00023  -0.00023  -0.00021
 153        4XX         0.00002  -0.00829   0.00001  -0.00000   0.00010
 154        4YY         0.00003  -0.00832  -0.00007   0.00005   0.00002
 155        4ZZ         0.00002  -0.00836  -0.00010   0.00002  -0.00001
 156        4XY         0.00001   0.00000   0.00003  -0.00003  -0.00002
 157        4XZ         0.00001  -0.00001   0.00001   0.00002   0.00001
 158        4YZ        -0.00001  -0.00004  -0.00002   0.00001   0.00002
 159 15  H  1S          0.00001   0.00036  -0.00015   0.00013  -0.00001
 160        2S         -0.00005  -0.00161  -0.00109  -0.00030  -0.00027
 161        3PX        -0.00001  -0.00003   0.00005   0.00004  -0.00002
 162        3PY        -0.00000  -0.00006  -0.00004  -0.00002  -0.00002
 163        3PZ         0.00000  -0.00004  -0.00002  -0.00002  -0.00003
 164 16  O  1S         -0.00007   0.00004   0.00000   0.00008   0.00006
 165        2S         -0.00011  -0.00009   0.00007   0.00013   0.00022
 166        2PX         0.00002   0.00000   0.00002  -0.00002   0.00001
 167        2PY        -0.00003   0.00003   0.00001  -0.00004  -0.00003
 168        2PZ        -0.00002   0.00002  -0.00000  -0.00004  -0.00000
 169        3S          0.00046   0.00054  -0.00039  -0.00067  -0.00135
 170        3PX        -0.00014  -0.00001  -0.00008   0.00022   0.00005
 171        3PY         0.00020  -0.00004  -0.00004   0.00023  -0.00010
 172        3PZ         0.00003  -0.00030   0.00004   0.00016   0.00018
 173        4XX        -0.00009  -0.00002   0.00001   0.00011   0.00016
 174        4YY        -0.00006  -0.00005   0.00003   0.00014   0.00018
 175        4ZZ        -0.00009  -0.00003   0.00003   0.00011   0.00013
 176        4XY        -0.00001  -0.00001   0.00002  -0.00001  -0.00010
 177        4XZ        -0.00001   0.00000  -0.00001  -0.00001  -0.00002
 178        4YZ         0.00000  -0.00003  -0.00001  -0.00002  -0.00004
 179 17  H  1S          0.00001  -0.00004   0.00007  -0.00004   0.00005
 180        2S          0.00006   0.00007  -0.00001   0.00024  -0.00005
 181        3PX        -0.00002  -0.00000  -0.00002   0.00003   0.00002
 182        3PY        -0.00000   0.00001   0.00001   0.00001  -0.00000
 183        3PZ        -0.00002  -0.00000  -0.00001  -0.00003   0.00000
 184 18  O  1S         -0.00002  -0.00003   0.00001   0.99273   0.00004
 185        2S         -0.00013  -0.00013  -0.00005   0.02561   0.00018
 186        2PX         0.00003  -0.00001   0.00000  -0.00078  -0.00001
 187        2PY        -0.00001  -0.00000   0.00000  -0.00053   0.00002
 188        2PZ        -0.00001   0.00005   0.00000   0.00004   0.00001
 189        3S          0.00061   0.00077   0.00025   0.01277  -0.00098
 190        3PX        -0.00019  -0.00021   0.00001  -0.00037   0.00038
 191        3PY         0.00001  -0.00019   0.00001  -0.00019  -0.00007
 192        3PZ         0.00005  -0.00027  -0.00002   0.00004  -0.00010
 193        4XX        -0.00008  -0.00004  -0.00005  -0.00814   0.00007
 194        4YY        -0.00011  -0.00005  -0.00005  -0.00817   0.00015
 195        4ZZ        -0.00010  -0.00010  -0.00005  -0.00817   0.00006
 196        4XY         0.00000   0.00001  -0.00000   0.00003  -0.00002
 197        4XZ        -0.00001   0.00003   0.00000  -0.00000   0.00000
 198        4YZ         0.00000  -0.00002   0.00001   0.00000   0.00002
 199 19  O  1S         -0.00000  -0.00002   0.99270  -0.00005   0.00000
 200        2S          0.00003   0.00004   0.02555  -0.00011   0.00004
 201        2PX        -0.00001  -0.00001  -0.00011  -0.00001   0.00002
 202        2PY        -0.00001   0.00002   0.00059   0.00001   0.00002
 203        2PZ         0.00001   0.00003   0.00061  -0.00001  -0.00002
 204        3S         -0.00016  -0.00024   0.01304   0.00060  -0.00019
 205        3PX         0.00002   0.00022   0.00033   0.00006  -0.00019
 206        3PY         0.00006  -0.00015   0.00031  -0.00001  -0.00032
 207        3PZ        -0.00004  -0.00027   0.00023   0.00011  -0.00006
 208        4XX         0.00003   0.00007  -0.00821  -0.00009   0.00002
 209        4YY         0.00004   0.00001  -0.00828  -0.00008  -0.00005
 210        4ZZ         0.00003  -0.00001  -0.00828  -0.00006  -0.00003
 211        4XY        -0.00001  -0.00002  -0.00000   0.00001   0.00001
 212        4XZ        -0.00000  -0.00001  -0.00001  -0.00001  -0.00004
 213        4YZ         0.00000  -0.00003   0.00001  -0.00001  -0.00001
                          11        12        13        14        15
                           O         O         O         O         O
     Eigenvalues --   -10.20368  -6.69938  -6.66948  -4.86367  -4.86263
   1 1   C  1S         -0.00143   0.00013   0.00013  -0.00001  -0.00010
   2        2S         -0.00008   0.00084   0.00087  -0.00006  -0.00022
   3        2PX        -0.00001   0.00004  -0.00002   0.00013   0.00039
   4        2PY        -0.00011  -0.00010  -0.00001  -0.00033  -0.00030
   5        2PZ         0.00004  -0.00007  -0.00010   0.00023  -0.00013
   6        3S          0.00345  -0.00467  -0.00445   0.00049   0.00336
   7        3PX        -0.00006   0.00219  -0.00193  -0.00057  -0.00202
   8        3PY         0.00194   0.00073   0.00024   0.00264   0.00353
   9        3PZ        -0.00156  -0.00004   0.00009  -0.00386   0.00296
  10        4XX        -0.00008   0.00016   0.00008   0.00010  -0.00009
  11        4YY        -0.00031   0.00025   0.00017  -0.00004  -0.00028
  12        4ZZ        -0.00024   0.00018   0.00015  -0.00003   0.00017
  13        4XY         0.00001  -0.00010   0.00012  -0.00012  -0.00017
  14        4XZ         0.00000   0.00002  -0.00000   0.00032  -0.00025
  15        4YZ         0.00010  -0.00002  -0.00004  -0.00014  -0.00005
  16 2   C  1S          0.99297  -0.00001   0.00000   0.00000   0.00000
  17        2S          0.05012  -0.00016  -0.00010   0.00020   0.00003
  18        2PX        -0.00003   0.00004   0.00001  -0.00001  -0.00004
  19        2PY        -0.00033  -0.00005  -0.00007   0.00018   0.00007
  20        2PZ         0.00007   0.00007   0.00008  -0.00013  -0.00005
  21        3S         -0.01737   0.00075   0.00068  -0.00243  -0.00100
  22        3PX        -0.00017  -0.00112   0.00081   0.00032   0.00054
  23        3PY         0.00167  -0.00129  -0.00121   0.00182  -0.00071
  24        3PZ        -0.00113   0.00056   0.00062  -0.00115  -0.00133
  25        4XX        -0.00884  -0.00000   0.00002  -0.00007  -0.00002
  26        4YY        -0.00902   0.00013   0.00015  -0.00022   0.00020
  27        4ZZ        -0.00892   0.00001   0.00006  -0.00006  -0.00019
  28        4XY        -0.00001   0.00008  -0.00010  -0.00009  -0.00002
  29        4XZ        -0.00001  -0.00011   0.00009   0.00004   0.00007
  30        4YZ         0.00017  -0.00007  -0.00007   0.00011   0.00009
  31 3   H  1S         -0.00002  -0.00015  -0.00014   0.00016  -0.00016
  32        2S          0.00223   0.00061   0.00070  -0.00093   0.00011
  33        3PX         0.00000   0.00001   0.00002   0.00006  -0.00008
  34        3PY        -0.00015  -0.00002  -0.00002   0.00005  -0.00009
  35        3PZ        -0.00022   0.00006   0.00006  -0.00008   0.00009
  36 4   H  1S         -0.00010  -0.00018   0.00006   0.00019   0.00019
  37        2S          0.00230   0.00054   0.00048  -0.00108   0.00028
  38        3PX        -0.00019   0.00003  -0.00001  -0.00001   0.00003
  39        3PY         0.00008  -0.00007   0.00003   0.00010   0.00007
  40        3PZ         0.00009   0.00004  -0.00005   0.00001  -0.00001
  41 5   H  1S         -0.00004   0.00009  -0.00012  -0.00001   0.00005
  42        2S          0.00241   0.00063   0.00066  -0.00019   0.00000
  43        3PX         0.00017  -0.00001  -0.00002  -0.00002  -0.00003
  44        3PY         0.00005   0.00003  -0.00010  -0.00005   0.00008
  45        3PZ         0.00007  -0.00005   0.00005   0.00001   0.00004
  46 6   O  1S         -0.00002  -0.00008  -0.00006  -0.00006   0.00006
  47        2S         -0.00013  -0.00039  -0.00030  -0.00034   0.00034
  48        2PX        -0.00000   0.00009  -0.00010  -0.00006   0.00003
  49        2PY        -0.00004   0.00002   0.00000   0.00007   0.00010
  50        2PZ         0.00009  -0.00000   0.00002  -0.00000  -0.00000
  51        3S          0.00012   0.00213   0.00164   0.00193  -0.00293
  52        3PX        -0.00002  -0.00080   0.00085   0.00025   0.00020
  53        3PY         0.00018  -0.00057  -0.00032  -0.00104  -0.00023
  54        3PZ        -0.00040  -0.00072  -0.00089  -0.00045   0.00145
  55        4XX        -0.00017  -0.00019  -0.00012  -0.00022   0.00010
  56        4YY        -0.00005  -0.00018  -0.00016   0.00004   0.00025
  57        4ZZ         0.00006  -0.00018  -0.00010  -0.00015  -0.00003
  58        4XY         0.00001   0.00004  -0.00005  -0.00003   0.00000
  59        4XZ        -0.00000   0.00014  -0.00015  -0.00004  -0.00007
  60        4YZ        -0.00003   0.00008   0.00009   0.00012  -0.00004
  61 7   H  1S          0.00011  -0.00007  -0.00004  -0.00018  -0.00012
  62        2S          0.00027   0.00047   0.00088   0.00069  -0.00043
  63        3PX        -0.00000  -0.00003   0.00004  -0.00008   0.00004
  64        3PY        -0.00001  -0.00002  -0.00001  -0.00011  -0.00005
  65        3PZ        -0.00004  -0.00010  -0.00014  -0.00011   0.00005
  66 8   P  1S         -0.00000  -0.27419  -0.00002   0.00026  -0.00168
[...]
     6  O   -0.517585
     7  H    0.335634
     8  P    1.091803
     9  P    1.106815
    10  O   -0.551047
    11  H    0.357296
    12  O   -0.539885
    13  H    0.354002
    14  O   -0.575931
    15  H    0.372647
    16  O   -0.600613
    17  H    0.350616
    18  O   -0.533496
    19  O   -0.607514
 Sum of Mulliken charges =  -0.00000
 Mulliken charges with hydrogens summed into heavy atoms:
               1
     1  C   -0.128771
     2  C    0.086029
     6  O   -0.181952
     8  P    1.091803
     9  P    1.106815
    10  O   -0.193751
    12  O   -0.185883
    14  O   -0.203285
    16  O   -0.249997
    18  O   -0.533496
    19  O   -0.607514
 Electronic spatial extent (au):  <R**2>=           1936.4695
 Charge=             -0.0000 electrons
 Dipole moment (field-independent basis, Debye):
    X=             -4.2343    Y=             -1.4178    Z=              1.1596  Tot=              4.6134
 Quadrupole moment (field-independent basis, Debye-Ang):
   XX=            -78.8108   YY=            -76.7472   ZZ=            -73.1234
   XY=             -3.1522   XZ=              8.1343   YZ=            -10.2758
 Traceless Quadrupole moment (field-independent basis, Debye-Ang):
   XX=             -2.5837   YY=             -0.5201   ZZ=              3.1037
   XY=             -3.1522   XZ=              8.1343   YZ=            -10.2758
 Octapole moment (field-independent basis, Debye-Ang**2):
  XXX=            -51.9689  YYY=            -12.7667  ZZZ=             15.7626  XYY=             -5.4532
  XXY=            -30.0915  XXZ=             12.4197  XZZ=             -4.8891  YZZ=             -3.1029
  YYZ=              4.8693  XYZ=              7.4529
 Hexadecapole moment (field-independent basis, Debye-Ang**3):
 XXXX=          -1286.7126 YYYY=           -539.6393 ZZZZ=           -411.2482 XXXY=            -40.5034
 XXXZ=             87.1657 YYYX=              7.1166 YYYZ=            -27.6066 ZZZX=             31.1975
 ZZZY=            -13.5498 XXYY=           -282.0890 XXZZ=           -244.3492 YYZZ=           -163.4657
 XXYZ=            -57.6796 YYXZ=             -8.4955 ZZXY=             -8.6244
 N-N= 1.023635029181D+03 E-N=-5.098681724505D+03  KE= 1.282518338893D+03
 Orbital energies and kinetic energies (alpha):
                                 1                 2
   1         O               -77.249504        106.045166
   2         O               -77.219547        106.045390
   3         O               -19.216153         29.025309
   4         O               -19.214201         29.025971
   5         O               -19.193293         29.025483
   6         O               -19.178705         29.028204
   7         O               -19.174213         29.024557
   8         O               -19.148856         29.026936
   9         O               -19.110785         29.028054
  10         O               -10.283264         15.890431
  11         O               -10.203679         15.882826
  12         O                -6.699379         15.693191
  13         O                -6.669481         15.693342
  14         O                -4.863673         14.706943
  15         O                -4.862633         14.704836
  16         O                -4.860168         14.710289
  17         O                -4.833758         14.708292
  18         O                -4.832431         14.709486
  19         O                -4.830687         14.706427
  20         O                -1.109601          2.522990
  21         O                -1.078476          2.521011
  22         O                -1.063351          2.723516
  23         O                -1.050425          2.561078
  24         O                -1.032059          2.717068
  25         O                -0.995275          2.876127
  26         O                -0.960095          2.879041
  27         O                -0.788648          1.634032
  28         O                -0.689738          1.893547
  29         O                -0.653402          2.057985
  30         O                -0.603691          1.963172
  31         O                -0.578562          1.971663
  32         O                -0.561260          1.981055
  33         O                -0.545196          1.828536
  34         O                -0.515330          1.655572
  35         O                -0.494900          2.314660
  36         O                -0.454860          2.219560
  37         O                -0.452924          2.218142
  38         O                -0.438936          1.882155
  39         O                -0.424514          1.860358
  40         O                -0.416984          1.961489
  41         O                -0.411883          1.667740
  42         O                -0.404342          1.872816
  43         O                -0.397812          2.153422
  44         O                -0.382428          1.976551
  45         O                -0.375735          2.373365
  46         O                -0.367832          2.327920
  47         O                -0.348303          2.234735
  48         O                -0.342076          2.307679
  49         O                -0.335798          2.189171
  50         O                -0.328069          2.317334
  51         O                -0.302331          2.273262
  52         O                -0.291112          2.302324
  53         O                -0.273740          2.338961
  54         V                 0.006815          1.799430
  55         V                 0.030317          1.856584
  56         V                 0.047485          1.772762
  57         V                 0.051045          1.905657
  58         V                 0.075367          1.663170
  59         V                 0.101405          1.986259
  60         V                 0.104923          1.693498
  61         V                 0.113387          2.129265
  62         V                 0.121497          2.192320
  63         V                 0.134016          2.272611
  64         V                 0.135495          2.150703
  65         V                 0.149837          1.586693
  66         V                 0.162976          1.558298
  67         V                 0.184759          2.144523
  68         V                 0.199242          1.922603
  69         V                 0.206142          1.993981
  70         V                 0.224602          2.010399
  71         V                 0.262305          2.267168
  72         V                 0.302901          1.744880
  73         V                 0.322719          2.110815
  74         V                 0.359836          2.193909
  75         V                 0.373106          2.281490
  76         V                 0.394444          2.274019
  77         V                 0.405937          2.076113
  78         V                 0.414756          2.399635
  79         V                 0.437468          1.857503
  80         V                 0.491289          2.151324
  81         V                 0.526070          2.646336
  82         V                 0.552088          2.276367
  83         V                 0.566117          2.212001
  84         V                 0.587393          2.301400
  85         V                 0.646728          2.333133
  86         V                 0.686991          2.271495
  87         V                 0.693684          2.358613
  88         V                 0.721220          2.652994
  89         V                 0.739315          2.609000
  90         V                 0.743724          2.652768
  91         V                 0.766133          2.376790
  92         V                 0.786555          2.777365
  93         V                 0.804419          2.452476
  94         V                 0.817382          2.609911
  95         V                 0.829436          2.520202
  96         V                 0.846791          2.526319
  97         V                 0.853914          2.665887
  98         V                 0.862568          2.705648
  99         V                 0.870362          2.725214
 100         V                 0.894519          2.881571
 101         V                 0.915186          2.643419
 102         V                 0.922743          2.921140
 103         V                 0.926482          2.760652
 104         V                 0.949365          3.143856
 105         V                 0.951256          3.042894
 106         V                 0.964454          2.992495
 107         V                 0.971117          3.090176
 108         V                 0.989687          3.268467
 109         V                 1.008222          3.208343
 110         V                 1.016012          3.347661
 111         V                 1.020821          2.890990
 112         V                 1.033144          2.917579
 113         V                 1.049056          3.256674
 114         V                 1.069560          3.099742
 115         V                 1.084591          3.319691
 116         V                 1.112850          3.503024
 117         V                 1.133801          3.779365
 118         V                 1.150769          3.517484
 119         V                 1.166167          3.088475
 120         V                 1.174277          3.527199
 121         V                 1.193123          3.770056
 122         V                 1.241663          3.316402
 123         V                 1.255108          2.919743
 124         V                 1.272583          3.245608
 125         V                 1.314926          3.104149
 126         V                 1.354513          2.670565
 127         V                 1.372902          2.745696
 128         V                 1.400507          2.726683
 129         V                 1.418847          2.700134
 130         V                 1.447432          2.810406
 131         V                 1.492394          2.722263
 132         V                 1.511129          2.742375
 133         V                 1.530758          2.662140
 134         V                 1.546167          2.671306
 135         V                 1.561814          2.689923
 136         V                 1.570695          2.693889
 137         V                 1.600626          2.839963
 138         V                 1.636818          2.779220
 139         V                 1.646514          2.812237
 140         V                 1.658333          2.875344
 141         V                 1.663146          2.850067
 142         V                 1.708121          2.934526
 143         V                 1.738240          2.918363
 144         V                 1.772646          2.916646
 145         V                 1.782294          2.971681
 146         V                 1.797456          3.045964
 147         V                 1.804115          2.999060
 148         V                 1.831083          3.062095
 149         V                 1.831829          3.053057
 150         V                 1.842948          3.137674
 151         V                 1.854531          3.081146
 152         V                 1.890564          3.187030
 153         V                 1.891326          3.156151
 154         V                 1.972516          3.256325
 155         V                 1.980147          3.555551
 156         V                 2.010437          3.341164
 157         V                 2.031983          3.085796
 158         V                 2.041653          3.339045
 159         V                 2.059556          3.360898
 160         V                 2.068767          3.378167
 161         V                 2.105098          3.330650
 162         V                 2.123878          3.282146
 163         V                 2.145926          3.467709
 164         V                 2.176139          3.507624
 165         V                 2.176531          3.466438
 166         V                 2.280729          3.713193
 167         V                 2.289787          3.720196
 168         V                 2.315557          3.690075
 169         V                 2.365487          3.656235
 170         V                 2.387216          3.816249
 171         V                 2.391979          3.807791
 172         V                 2.414822          3.649260
 173         V                 2.447332          3.846993
 174         V                 2.463630          4.321486
 175         V                 2.489272          3.809552
 176         V                 2.508036          4.337852
 177         V                 2.575009          3.750981
 178         V                 2.583343          3.823631
 179         V                 2.592610          3.632045
 180         V                 2.601102          4.261895
 181         V                 2.627760          3.909765
 182         V                 2.635476          3.871026
 183         V                 2.649168          3.747144
 184         V                 2.678235          3.821812
 185         V                 2.685360          3.870996
 186         V                 2.688272          3.868957
 187         V                 2.708780          3.905868
 188         V                 2.771411          4.232910
 189         V                 2.781216          4.230741
 190         V                 2.818610          4.656068
 191         V                 2.860358          3.978600
 192         V                 2.876193          4.631073
 193         V                 2.923001          4.122686
 194         V                 2.991760          4.558894
 195         V                 3.209557          4.979601
 196         V                 3.316683          6.497250
 197         V                 3.321396          6.439706
 198         V                 3.348373          6.354832
 199         V                 3.410434          5.561665
 200         V                 3.426905          5.296769
 201         V                 3.449699          6.225552
 202         V                 3.454653          6.134188
 203         V                 3.510615          9.980965
 204         V                 3.545217          9.633445
 205         V                 3.752987          9.320396
 206         V                 3.901035          9.968260
 207         V                 3.986217         10.131631
 208         V                 4.013101         10.126984
 209         V                 4.046099         10.350808
 210         V                 4.175421         10.549329
 211         V                 4.211517         10.759284
 212         V                 4.326384         10.427870
 213         V                 4.566308         10.317531
 Total kinetic energy from orbitals= 1.282518338893D+03
 No NMR shielding tensors so no spin-rotation constants.
 Leave Link  601 at Thu Jan 21 22:39:47 2021, MaxMem=   536870912 cpu:               1.5 elap:               0.2
 (Enter /usr/local//g16/l602.exe)
 FitSet:  NAtFit=    19 NAtPot=    19 NAtFrz=     0 MDM=    23 TotChg=   0.00000
 Francl (CHELP) atomic radii used.
 Generate Potential Derived Charges using the Chirlian-Francl model.
 Fit using   5 shells.
 Number of Points to Fit=    1149

 **********************************************************************

            Electrostatic Properties Using The SCF Density

 **********************************************************************

       Atomic Center    1 is at   0.026403  0.804161  0.144190
       Atomic Center    2 is at   0.003026  1.952511 -0.870160
       Atomic Center    3 is at  -0.014775  1.575111 -1.896700
       Atomic Center    4 is at  -0.872163  2.581243 -0.693690
       Atomic Center    5 is at   0.908577  2.547669 -0.737470
       Atomic Center    6 is at   0.010244  1.379991  1.436430
       Atomic Center    7 is at   0.120593  0.664281  2.081730
       Atomic Center    8 is at  -1.464319 -0.282966 -0.090940
       Atomic Center    9 is at   1.613431 -0.166642 -0.100370
       Atomic Center   10 is at  -1.706890 -0.822275  1.407770
       Atomic Center   11 is at  -2.238662 -1.632054  1.422430
       Atomic Center   12 is at  -2.750077  0.668317 -0.344120
       Atomic Center   13 is at  -3.018297  0.637898 -1.274620
       Atomic Center   14 is at   1.372759 -1.087752 -1.385380
       Atomic Center   15 is at   0.439068 -1.413090 -1.450140
       Atomic Center   16 is at   1.508279 -1.129542  1.218960
       Atomic Center   17 is at   2.394919 -1.311284  1.565730
       Atomic Center   18 is at   2.851963  0.641375 -0.155050
       Atomic Center   19 is at  -1.302841 -1.330826 -1.152590
    1149 points will be used for fitting atomic charges
 Fitting point charges to electrostatic potential
 Charges from ESP fit, RMS=   0.00380 RRMS=   0.19591:
 ESP charges:
               1
     1  C    0.318199
     2  C   -0.340936
     3  H    0.045134
     4  H    0.099395
     5  H    0.137347
     6  O   -0.605716
     7  H    0.411326
     8  P    1.105706
     9  P    0.941983
    10  O   -0.612410
    11  H    0.405740
    12  O   -0.556206
    13  H    0.375821
    14  O   -0.538456
    15  H    0.373045
    16  O   -0.727074
    17  H    0.468228
    18  O   -0.610491
    19  O   -0.690635
 Sum of ESP charges =   0.00000
 ESP charges with hydrogens summed into heavy atoms:
               1
     1  C    0.318199
     2  C   -0.059060
     6  O   -0.194391
     8  P    1.105706
     9  P    0.941983
    10  O   -0.206670
    12  O   -0.180385
    14  O   -0.165412
    16  O   -0.258845
    18  O   -0.610491
    19  O   -0.690635
 Charge=   0.00000 Dipole=    -4.1824    -1.2581     1.1898 Tot=     4.5267
 -----------------------------------------------------------------

              Electrostatic Properties (Atomic Units)

 -----------------------------------------------------------------
    Center     Electric         -------- Electric Field --------
               Potential          X             Y             Z
 -----------------------------------------------------------------
    1 Atom    -14.640665
    2 Atom    -14.721650
    3 Atom     -1.095571
    4 Atom     -1.102813
    5 Atom     -1.105895
    6 Atom    -22.283809
    7 Atom     -0.982249
    8 Atom    -53.958028
    9 Atom    -53.987673
   10 Atom    -22.243935
   11 Atom     -0.922533
   12 Atom    -22.246352
   13 Atom     -0.926383
   14 Atom    -22.286260
   15 Atom     -0.963259
   16 Atom    -22.267429
   17 Atom     -0.946947
   18 Atom    -22.355965
   19 Atom    -22.317078
 -----------------------------------------------------------------
 Leave Link  602 at Thu Jan 21 22:39:47 2021, MaxMem=   536870912 cpu:               0.4 elap:               0.1
 (Enter /usr/local//g16/l9999.exe)

 Test job not archived.
 1\1\GINC-BATAGIN2\SP\RB3LYP\6-31G(d,p)\C2H8O7P2\ORISON\21-Jan-2021\0\\
 #P B3LYP/6-31G(d,p) # Pop=chelp # Gfinput IOP(6/7=3) Density Test\\eti
 dronate-opt-g09.log\\0,1\C,0,-0.0264,0.80416,-0.14419\C,0,-0.00302,1.9
 5251,0.87016\H,0,0.01478,1.57511,1.8967\H,0,0.87217,2.58124,0.69369\H,
 0,-0.90857,2.54767,0.73747\O,0,-0.01024,1.37999,-1.43643\H,0,-0.12059,
 0.66428,-2.08173\P,0,1.46432,-0.28297,0.09094\P,0,-1.61343,-0.16664,0.
 10037\O,0,1.70689,-0.82228,-1.40777\H,0,2.23866,-1.63206,-1.42243\O,0,
 2.75008,0.66831,0.34412\H,0,3.0183,0.63789,1.27462\O,0,-1.37276,-1.087
 75,1.38538\H,0,-0.43907,-1.41309,1.45014\O,0,-1.50828,-1.12954,-1.2189
 6\H,0,-2.39492,-1.31128,-1.56573\O,0,-2.85196,0.64138,0.15505\O,0,1.30
 284,-1.33083,1.15259\\Version=EM64L-G16RevA.03\State=1-A\HF=-1290.4554
 209\RMSD=4.571e-09\Dipole=1.6658811,-0.5578116,-0.456231\Quadrupole=-1
 .9208753,-0.3866759,2.3075512,2.3435862,6.0476805,7.6397949\PG=C01 [X(
 C2H8O7P2)]\\@


 I SUPPOSE A BABY LLAMA HAS A MMAMA AND A PPOPA.
     -- RICHARD AMOUR
 Job cpu time:       0 days  0 hours  3 minutes 28.1 seconds.
 Elapsed time:       0 days  0 hours  0 minutes 26.1 seconds.
 File lengths (MBytes):  RWF=     31 Int=      0 D2E=      0 Chk=      4 Scr=      1
 Normal termination of Gaussian 16 at Thu Jan 21 22:39:47 2021.
