etidronate-opt-g09.log                                                  
SP        RB3LYP                                                      6-31G(d,p)          
Number of atoms                            I               19
Info1-9                                    I   N=           9
          30          30           0           0           0         111
           1          18        -502
Full Title                                 C   N=           2
etidronate-opt-g09.log  
Route                                      C   N=           6
#P B3LYP/6-31G(d,p) # Pop=chelp # Gfinput IOP(6/7=3) Density
 Test       
Charge                                     I                0
Multiplicity                               I                1
Number of electrons                        I              106
Number of alpha electrons                  I               53
Number of beta electrons                   I               53
Number of basis functions                  I              213
Number of independent functions            I              213
Number of point charges in /Mol/           I                0
Number of translation vectors              I                0
Atomic numbers                             I   N=          19
           6           6           1           1           1           8
           1          15          15           8           1           8
           1           8           1           8           1           8
           8
Nuclear charges                            R   N=          19
  6.00000000E+00  6.00000000E+00  1.00000000E+00  1.00000000E+00  1.00000000E+00
  8.00000000E+00  1.00000000E+00  1.50000000E+01  1.50000000E+01  8.00000000E+00
  1.00000000E+00  8.00000000E+00  1.00000000E+00  8.00000000E+00  1.00000000E+00
  8.00000000E+00  1.00000000E+00  8.00000000E+00  8.00000000E+00
Current cartesian coordinates              R   N=          57
  4.98947436E-02  1.51964437E+00  2.72480323E-01  5.71765883E-03  3.68971146E+00
 -1.64436337E+00 -2.79210148E-02  2.97652889E+00 -3.58424283E+00 -1.64814917E+00
  4.87784256E+00 -1.31088340E+00  1.71696159E+00  4.81439715E+00 -1.39361561E+00
  1.93591322E-02  2.60780543E+00  2.71446001E+00  2.27887473E-01  1.25530909E+00
  3.93390028E+00 -2.76716225E+00 -5.34727475E-01 -1.71850981E-01  3.04894281E+00
 -3.14908264E-01 -1.89671098E-01 -3.22555532E+00 -1.55387468E+00  2.66030046E+00
 -4.23045831E+00 -3.08413492E+00  2.68800384E+00 -5.19689260E+00  1.26293647E+00
 -6.50291841E-01 -5.70375507E+00  1.20545210E+00 -2.40868200E+00  2.59413865E+00
 -2.05555291E+00 -2.61798807E+00  8.29718925E-01 -2.67035257E+00 -2.74036673E+00
  2.85023416E+00 -2.13452512E+00  2.30350127E+00  4.52574018E+00 -2.47796758E+00
  2.95880160E+00  5.38942862E+00  1.21202316E+00 -2.93001323E-01 -2.46201357E+00
 -2.51489655E+00 -2.17807872E+00
Number of symbols in /Mol/                 I                0
Force Field                                I                0
Atom Types                                 C   N=          19
                                                            
                                                            
                                                            
                                                
Int Atom Types                             I   N=          19
           0           0           0           0           0           0
           0           0           0           0           0           0
           0           0           0           0           0           0
           0
MM charges                                 R   N=          19
  0.00000000E+00  0.00000000E+00  0.00000000E+00  0.00000000E+00  0.00000000E+00
  0.00000000E+00  0.00000000E+00  0.00000000E+00  0.00000000E+00  0.00000000E+00
  0.00000000E+00  0.00000000E+00  0.00000000E+00  0.00000000E+00  0.00000000E+00
  0.00000000E+00  0.00000000E+00  0.00000000E+00  0.00000000E+00
Integer atomic weights                     I   N=          19
          12          12           1           1           1          16
           1          31          31          16           1          16
           1          16           1          16           1          16
          16
Real atomic weights                        R   N=          19
  1.20000000E+01  1.20000000E+01  1.00782504E+00  1.00782504E+00  1.00782504E+00
  1.59949146E+01  1.00782504E+00  3.09737634E+01  3.09737634E+01  1.59949146E+01
  1.00782504E+00  1.59949146E+01  1.00782504E+00  1.59949146E+01  1.00782504E+00
  1.59949146E+01  1.00782504E+00  1.59949146E+01  1.59949146E+01
Atom fragment info                         I   N=          19
           0           0           0           0           0           0
           0           0           0           0           0           0
           0           0           0           0           0           0
           0
Atom residue num                           I   N=          19
           0           0           0           0           0           0
           0           0           0           0           0           0
           0           0           0           0           0           0
           0
Nuclear spins                              I   N=          19
           0           0           1           1           1           0
           1           1           1           0           1           0
           1           0           1           0           1           0
           0
Nuclear ZEff                               R   N=          19
 -3.60000000E+00 -3.60000000E+00 -1.00000000E+00 -1.00000000E+00 -1.00000000E+00
 -5.60000000E+00 -1.00000000E+00 -1.29400000E+01 -1.29400000E+01 -5.60000000E+00
 -1.00000000E+00 -5.60000000E+00 -1.00000000E+00 -5.60000000E+00 -1.00000000E+00
 -5.60000000E+00 -1.00000000E+00 -5.60000000E+00 -5.60000000E+00
Nuclear ZNuc                               R   N=          19
  6.00000000E+00  6.00000000E+00  1.00000000E+00  1.00000000E+00  1.00000000E+00
  8.00000000E+00  1.00000000E+00  1.50000000E+01  1.50000000E+01  8.00000000E+00
  1.00000000E+00  8.00000000E+00  1.00000000E+00  8.00000000E+00  1.00000000E+00
  8.00000000E+00  1.00000000E+00  8.00000000E+00  8.00000000E+00
Nuclear QMom                               R   N=          19
  0.00000000E+00  0.00000000E+00  0.00000000E+00  0.00000000E+00  0.00000000E+00
  0.00000000E+00  0.00000000E+00  0.00000000E+00  0.00000000E+00  0.00000000E+00
  0.00000000E+00  0.00000000E+00  0.00000000E+00  0.00000000E+00  0.00000000E+00
  0.00000000E+00  0.00000000E+00  0.00000000E+00  0.00000000E+00
Nuclear GFac                               R   N=          19
  0.00000000E+00  0.00000000E+00  2.79284600E+00  2.79284600E+00  2.79284600E+00
  0.00000000E+00  2.79284600E+00  1.13160000E+00  1.13160000E+00  0.00000000E+00
  2.79284600E+00  0.00000000E+00  2.79284600E+00  0.00000000E+00  2.79284600E+00
  0.00000000E+00  2.79284600E+00  0.00000000E+00  0.00000000E+00
MicOpt                                     I   N=          19
          -1          -1          -1          -1          -1          -1
          -1          -1          -1          -1          -1          -1
          -1          -1          -1          -1          -1          -1
          -1
Number of residues                         I                0
Number of secondary structures             I                0
SymInf integers                            I   N=          26
           1           1           1           1           1           0
           0           0           0           0           0           0
           0           0           0           0           0           0
           0           0           0           0           0           0
           0           0
RotTr to input orientation                 R   N=          12
 -1.00000000E+00  2.17138741E-06  0.00000000E+00  2.17138741E-06  1.00000000E+00
 -0.00000000E+00  0.00000000E+00  0.00000000E+00 -1.00000000E+00  2.67414074E-06
 -2.31758864E-06  7.13104198E-07
Number of contracted shells                I               70
Number of primitive shells                 I              173
Pure/Cartesian d shells                    I                1
Pure/Cartesian f shells                    I                0
Highest angular momentum                   I                2
Largest degree of contraction              I                6
Shell types                                I   N=          70
           0          -1          -1           2           0          -1
          -1           2           0           0           1           0
           0           1           0           0           1           0
          -1          -1           2           0           0           1
           0          -1          -1          -1           2           0
          -1          -1          -1           2           0          -1
          -1           2           0           0           1           0
          -1          -1           2           0           0           1
           0          -1          -1           2           0           0
           1           0          -1          -1           2           0
           0           1           0          -1          -1           2
           0          -1          -1           2
Number of primitives per shell             I   N=          70
           6           3           1           1           6           3
           1           1           3           1           1           3
           1           1           3           1           1           6
           3           1           1           3           1           1
           6           6           3           1           1           6
           6           3           1           1           6           3
           1           1           3           1           1           6
           3           1           1           3           1           1
           6           3           1           1           3           1
           1           6           3           1           1           3
           1           1           6           3           1           1
           6           3           1           1
Shell to atom map                          I   N=          70
           1           1           1           1           2           2
           2           2           3           3           3           4
           4           4           5           5           5           6
           6           6           6           7           7           7
           8           8           8           8           8           9
           9           9           9           9          10          10
          10          10          11          11          11          12
          12          12          12          13          13          13
          14          14          14          14          15          15
          15          16          16          16          16          17
          17          17          18          18          18          18
          19          19          19          19
Primitive exponents                        R   N=         173
  3.04752488E+03  4.57369518E+02  1.03948685E+02  2.92101553E+01  9.28666296E+00
  3.16392696E+00  7.86827235E+00  1.88128854E+00  5.44249258E-01  1.68714478E-01
  8.00000000E-01  3.04752488E+03  4.57369518E+02  1.03948685E+02  2.92101553E+01
  9.28666296E+00  3.16392696E+00  7.86827235E+00  1.88128854E+00  5.44249258E-01
  1.68714478E-01  8.00000000E-01  1.87311370E+01  2.82539436E+00  6.40121692E-01
  1.61277759E-01  1.10000000E+00  1.87311370E+01  2.82539436E+00  6.40121692E-01
  1.61277759E-01  1.10000000E+00  1.87311370E+01  2.82539436E+00  6.40121692E-01
  1.61277759E-01  1.10000000E+00  5.48467166E+03  8.25234946E+02  1.88046958E+02
  5.29645000E+01  1.68975704E+01  5.79963534E+00  1.55396162E+01  3.59993359E+00
  1.01376175E+00  2.70005823E-01  8.00000000E-01  1.87311370E+01  2.82539436E+00
  6.40121692E-01  1.61277759E-01  1.10000000E+00  1.94133000E+04  2.90942000E+03
  6.61364000E+02  1.85759000E+02  5.91943000E+01  2.00310000E+01  3.39478000E+02
  8.10101000E+01  2.58780000E+01  9.45221000E+00  3.66566000E+00  1.46746000E+00
  2.15623000E+00  7.48997000E-01  2.83145000E-01  9.98317000E-02  5.50000000E-01
  1.94133000E+04  2.90942000E+03  6.61364000E+02  1.85759000E+02  5.91943000E+01
  2.00310000E+01  3.39478000E+02  8.10101000E+01  2.58780000E+01  9.45221000E+00
  3.66566000E+00  1.46746000E+00  2.15623000E+00  7.48997000E-01  2.83145000E-01
  9.98317000E-02  5.50000000E-01  5.48467166E+03  8.25234946E+02  1.88046958E+02
  5.29645000E+01  1.68975704E+01  5.79963534E+00  1.55396162E+01  3.59993359E+00
  1.01376175E+00  2.70005823E-01  8.00000000E-01  1.87311370E+01  2.82539436E+00
  6.40121692E-01  1.61277759E-01  1.10000000E+00  5.48467166E+03  8.25234946E+02
  1.88046958E+02  5.29645000E+01  1.68975704E+01  5.79963534E+00  1.55396162E+01
  3.59993359E+00  1.01376175E+00  2.70005823E-01  8.00000000E-01  1.87311370E+01
  2.82539436E+00  6.40121692E-01  1.61277759E-01  1.10000000E+00  5.48467166E+03
  8.25234946E+02  1.88046958E+02  5.29645000E+01  1.68975704E+01  5.79963534E+00
  1.55396162E+01  3.59993359E+00  1.01376175E+00  2.70005823E-01  8.00000000E-01
  1.87311370E+01  2.82539436E+00  6.40121692E-01  1.61277759E-01  1.10000000E+00
  5.48467166E+03  8.25234946E+02  1.88046958E+02  5.29645000E+01  1.68975704E+01
  5.79963534E+00  1.55396162E+01  3.59993359E+00  1.01376175E+00  2.70005823E-01
  8.00000000E-01  1.87311370E+01  2.82539436E+00  6.40121692E-01  1.61277759E-01
  1.10000000E+00  5.48467166E+03  8.25234946E+02  1.88046958E+02  5.29645000E+01
  1.68975704E+01  5.79963534E+00  1.55396162E+01  3.59993359E+00  1.01376175E+00
  2.70005823E-01  8.00000000E-01  5.48467166E+03  8.25234946E+02  1.88046958E+02
  5.29645000E+01  1.68975704E+01  5.79963534E+00  1.55396162E+01  3.59993359E+00
  1.01376175E+00  2.70005823E-01  8.00000000E-01
Contraction coefficients                   R   N=         173
  1.83473713E-03  1.40373228E-02  6.88426223E-02  2.32184443E-01  4.67941348E-01
  3.62311985E-01 -1.19332420E-01 -1.60854152E-01  1.14345644E+00  1.00000000E+00
  1.00000000E+00  1.83473713E-03  1.40373228E-02  6.88426223E-02  2.32184443E-01
  4.67941348E-01  3.62311985E-01 -1.19332420E-01 -1.60854152E-01  1.14345644E+00
  1.00000000E+00  1.00000000E+00  3.34946043E-02  2.34726953E-01  8.13757326E-01
  1.00000000E+00  1.00000000E+00  3.34946043E-02  2.34726953E-01  8.13757326E-01
  1.00000000E+00  1.00000000E+00  3.34946043E-02  2.34726953E-01  8.13757326E-01
  1.00000000E+00  1.00000000E+00  1.83107443E-03  1.39501722E-02  6.84450781E-02
  2.32714336E-01  4.70192898E-01  3.58520853E-01 -1.10777550E-01 -1.48026263E-01
  1.13076702E+00  1.00000000E+00  1.00000000E+00  3.34946043E-02  2.34726953E-01
  8.13757326E-01  1.00000000E+00  1.00000000E+00  1.85159892E-03  1.42061917E-02
  6.99994593E-02  2.40078860E-01  4.84761718E-01  3.35199805E-01 -2.78217010E-03
 -3.60499014E-02 -1.16631004E-01  9.68328036E-02  6.14418023E-01  4.03798015E-01
 -2.52924114E-01  3.28518447E-02  1.08125476E+00  1.00000000E+00  1.00000000E+00
  1.85159892E-03  1.42061917E-02  6.99994593E-02  2.40078860E-01  4.84761718E-01
  3.35199805E-01 -2.78217010E-03 -3.60499014E-02 -1.16631004E-01  9.68328036E-02
  6.14418023E-01  4.03798015E-01 -2.52924114E-01  3.28518447E-02  1.08125476E+00
  1.00000000E+00  1.00000000E+00  1.83107443E-03  1.39501722E-02  6.84450781E-02
  2.32714336E-01  4.70192898E-01  3.58520853E-01 -1.10777550E-01 -1.48026263E-01
  1.13076702E+00  1.00000000E+00  1.00000000E+00  3.34946043E-02  2.34726953E-01
  8.13757326E-01  1.00000000E+00  1.00000000E+00  1.83107443E-03  1.39501722E-02
  6.84450781E-02  2.32714336E-01  4.70192898E-01  3.58520853E-01 -1.10777550E-01
 -1.48026263E-01  1.13076702E+00  1.00000000E+00  1.00000000E+00  3.34946043E-02
  2.34726953E-01  8.13757326E-01  1.00000000E+00  1.00000000E+00  1.83107443E-03
  1.39501722E-02  6.84450781E-02  2.32714336E-01  4.70192898E-01  3.58520853E-01
 -1.10777550E-01 -1.48026263E-01  1.13076702E+00  1.00000000E+00  1.00000000E+00
  3.34946043E-02  2.34726953E-01  8.13757326E-01  1.00000000E+00  1.00000000E+00
  1.83107443E-03  1.39501722E-02  6.84450781E-02  2.32714336E-01  4.70192898E-01
  3.58520853E-01 -1.10777550E-01 -1.48026263E-01  1.13076702E+00  1.00000000E+00
  1.00000000E+00  3.34946043E-02  2.34726953E-01  8.13757326E-01  1.00000000E+00
  1.00000000E+00  1.83107443E-03  1.39501722E-02  6.84450781E-02  2.32714336E-01
  4.70192898E-01  3.58520853E-01 -1.10777550E-01 -1.48026263E-01  1.13076702E+00
  1.00000000E+00  1.00000000E+00  1.83107443E-03  1.39501722E-02  6.84450781E-02
  2.32714336E-01  4.70192898E-01  3.58520853E-01 -1.10777550E-01 -1.48026263E-01
  1.13076702E+00  1.00000000E+00  1.00000000E+00
P(S=P) Contraction coefficients            R   N=         173
  0.00000000E+00  0.00000000E+00  0.00000000E+00  0.00000000E+00  0.00000000E+00
  0.00000000E+00  6.89990666E-02  3.16423961E-01  7.44308291E-01  1.00000000E+00
  0.00000000E+00  0.00000000E+00  0.00000000E+00  0.00000000E+00  0.00000000E+00
  0.00000000E+00  0.00000000E+00  6.89990666E-02  3.16423961E-01  7.44308291E-01
  1.00000000E+00  0.00000000E+00  0.00000000E+00  0.00000000E+00  0.00000000E+00
  0.00000000E+00  0.00000000E+00  0.00000000E+00  0.00000000E+00  0.00000000E+00
  0.00000000E+00  0.00000000E+00  0.00000000E+00  0.00000000E+00  0.00000000E+00
  0.00000000E+00  0.00000000E+00  0.00000000E+00  0.00000000E+00  0.00000000E+00
  0.00000000E+00  0.00000000E+00  0.00000000E+00  7.08742682E-02  3.39752839E-01
  7.27158577E-01  1.00000000E+00  0.00000000E+00  0.00000000E+00  0.00000000E+00
  0.00000000E+00  0.00000000E+00  0.00000000E+00  0.00000000E+00  0.00000000E+00
  0.00000000E+00  0.00000000E+00  0.00000000E+00  0.00000000E+00  4.56461619E-03
  3.36935719E-02  1.39754883E-01  3.39361717E-01  4.50920624E-01  2.38585801E-01
 -1.77653127E-02  2.74058196E-01  7.85421563E-01  1.00000000E+00  0.00000000E+00
  0.00000000E+00  0.00000000E+00  0.00000000E+00  0.00000000E+00  0.00000000E+00
  0.00000000E+00  4.56461619E-03  3.36935719E-02  1.39754883E-01  3.39361717E-01
  4.50920624E-01  2.38585801E-01 -1.77653127E-02  2.74058196E-01  7.85421563E-01
  1.00000000E+00  0.00000000E+00  0.00000000E+00  0.00000000E+00  0.00000000E+00
  0.00000000E+00  0.00000000E+00  0.00000000E+00  7.08742682E-02  3.39752839E-01
  7.27158577E-01  1.00000000E+00  0.00000000E+00  0.00000000E+00  0.00000000E+00
  0.00000000E+00  0.00000000E+00  0.00000000E+00  0.00000000E+00  0.00000000E+00
  0.00000000E+00  0.00000000E+00  0.00000000E+00  0.00000000E+00  7.08742682E-02
  3.39752839E-01  7.27158577E-01  1.00000000E+00  0.00000000E+00  0.00000000E+00
  0.00000000E+00  0.00000000E+00  0.00000000E+00  0.00000000E+00  0.00000000E+00
  0.00000000E+00  0.00000000E+00  0.00000000E+00  0.00000000E+00  0.00000000E+00
  7.08742682E-02  3.39752839E-01  7.27158577E-01  1.00000000E+00  0.00000000E+00
  0.00000000E+00  0.00000000E+00  0.00000000E+00  0.00000000E+00  0.00000000E+00
  0.00000000E+00  0.00000000E+00  0.00000000E+00  0.00000000E+00  0.00000000E+00
  0.00000000E+00  7.08742682E-02  3.39752839E-01  7.27158577E-01  1.00000000E+00
  0.00000000E+00  0.00000000E+00  0.00000000E+00  0.00000000E+00  0.00000000E+00
  0.00000000E+00  0.00000000E+00  0.00000000E+00  0.00000000E+00  0.00000000E+00
  0.00000000E+00  0.00000000E+00  7.08742682E-02  3.39752839E-01  7.27158577E-01
  1.00000000E+00  0.00000000E+00  0.00000000E+00  0.00000000E+00  0.00000000E+00
  0.00000000E+00  0.00000000E+00  0.00000000E+00  7.08742682E-02  3.39752839E-01
  7.27158577E-01  1.00000000E+00  0.00000000E+00
Coordinates of each shell                  R   N=         210
  4.98947436E-02  1.51964437E+00  2.72480323E-01  4.98947436E-02  1.51964437E+00
  2.72480323E-01  4.98947436E-02  1.51964437E+00  2.72480323E-01  4.98947436E-02
  1.51964437E+00  2.72480323E-01  5.71765883E-03  3.68971146E+00 -1.64436337E+00
  5.71765883E-03  3.68971146E+00 -1.64436337E+00  5.71765883E-03  3.68971146E+00
 -1.64436337E+00  5.71765883E-03  3.68971146E+00 -1.64436337E+00 -2.79210148E-02
  2.97652889E+00 -3.58424283E+00 -2.79210148E-02  2.97652889E+00 -3.58424283E+00
 -2.79210148E-02  2.97652889E+00 -3.58424283E+00 -1.64814917E+00  4.87784256E+00
 -1.31088340E+00 -1.64814917E+00  4.87784256E+00 -1.31088340E+00 -1.64814917E+00
  4.87784256E+00 -1.31088340E+00  1.71696159E+00  4.81439715E+00 -1.39361561E+00
  1.71696159E+00  4.81439715E+00 -1.39361561E+00  1.71696159E+00  4.81439715E+00
 -1.39361561E+00  1.93591322E-02  2.60780543E+00  2.71446001E+00  1.93591322E-02
  2.60780543E+00  2.71446001E+00  1.93591322E-02  2.60780543E+00  2.71446001E+00
  1.93591322E-02  2.60780543E+00  2.71446001E+00  2.27887473E-01  1.25530909E+00
  3.93390028E+00  2.27887473E-01  1.25530909E+00  3.93390028E+00  2.27887473E-01
  1.25530909E+00  3.93390028E+00 -2.76716225E+00 -5.34727475E-01 -1.71850981E-01
 -2.76716225E+00 -5.34727475E-01 -1.71850981E-01 -2.76716225E+00 -5.34727475E-01
 -1.71850981E-01 -2.76716225E+00 -5.34727475E-01 -1.71850981E-01 -2.76716225E+00
 -5.34727475E-01 -1.71850981E-01  3.04894281E+00 -3.14908264E-01 -1.89671098E-01
  3.04894281E+00 -3.14908264E-01 -1.89671098E-01  3.04894281E+00 -3.14908264E-01
 -1.89671098E-01  3.04894281E+00 -3.14908264E-01 -1.89671098E-01  3.04894281E+00
 -3.14908264E-01 -1.89671098E-01 -3.22555532E+00 -1.55387468E+00  2.66030046E+00
 -3.22555532E+00 -1.55387468E+00  2.66030046E+00 -3.22555532E+00 -1.55387468E+00
  2.66030046E+00 -3.22555532E+00 -1.55387468E+00  2.66030046E+00 -4.23045831E+00
 -3.08413492E+00  2.68800384E+00 -4.23045831E+00 -3.08413492E+00  2.68800384E+00
 -4.23045831E+00 -3.08413492E+00  2.68800384E+00 -5.19689260E+00  1.26293647E+00
 -6.50291841E-01 -5.19689260E+00  1.26293647E+00 -6.50291841E-01 -5.19689260E+00
  1.26293647E+00 -6.50291841E-01 -5.19689260E+00  1.26293647E+00 -6.50291841E-01
 -5.70375507E+00  1.20545210E+00 -2.40868200E+00 -5.70375507E+00  1.20545210E+00
 -2.40868200E+00 -5.70375507E+00  1.20545210E+00 -2.40868200E+00  2.59413865E+00
 -2.05555291E+00 -2.61798807E+00  2.59413865E+00 -2.05555291E+00 -2.61798807E+00
  2.59413865E+00 -2.05555291E+00 -2.61798807E+00  2.59413865E+00 -2.05555291E+00
 -2.61798807E+00  8.29718925E-01 -2.67035257E+00 -2.74036673E+00  8.29718925E-01
 -2.67035257E+00 -2.74036673E+00  8.29718925E-01 -2.67035257E+00 -2.74036673E+00
  2.85023416E+00 -2.13452512E+00  2.30350127E+00  2.85023416E+00 -2.13452512E+00
  2.30350127E+00  2.85023416E+00 -2.13452512E+00  2.30350127E+00  2.85023416E+00
 -2.13452512E+00  2.30350127E+00  4.52574018E+00 -2.47796758E+00  2.95880160E+00
  4.52574018E+00 -2.47796758E+00  2.95880160E+00  4.52574018E+00 -2.47796758E+00
  2.95880160E+00  5.38942862E+00  1.21202316E+00 -2.93001323E-01  5.38942862E+00
  1.21202316E+00 -2.93001323E-01  5.38942862E+00  1.21202316E+00 -2.93001323E-01
  5.38942862E+00  1.21202316E+00 -2.93001323E-01 -2.46201357E+00 -2.51489655E+00
 -2.17807872E+00 -2.46201357E+00 -2.51489655E+00 -2.17807872E+00 -2.46201357E+00
 -2.51489655E+00 -2.17807872E+00 -2.46201357E+00 -2.51489655E+00 -2.17807872E+00
Num ILSW                                   I              100
ILSW                                       I   N=         100
           0           1           0           0           2           0
           0           0           0           0         402          -1
           5           0           0           0           0           0
           0           0           0           0           0           0
           1           0           0           0           0           0
           0           0      100000           0          -1           0
           0           0           0           0           0           0
           0           0           0           1           0           0
           0 -2000000000           1           0           0           0
           0           0           4          52           0           0
           0           0           5           0           0           0
           0           0           0          19           0           1
           0           0           0           0           0           0
           0           0           0           0           0           0
           0           0           0           0           0           0
           0           0           0           0           0           0
           0           0           0           0
Num RLSW                                   I               52
RLSW                                       R   N=          52
  8.00000000E-01  7.20000000E-01  1.00000000E+00  8.10000000E-01  2.00000000E-01
  0.00000000E+00  0.00000000E+00  1.00000000E+00  0.00000000E+00  0.00000000E+00
  0.00000000E+00  0.00000000E+00  1.00000000E+00  0.00000000E+00  0.00000000E+00
  0.00000000E+00  0.00000000E+00  1.00000000E+00  0.00000000E+00  0.00000000E+00
  0.00000000E+00  0.00000000E+00  1.00000000E+00  0.00000000E+00  0.00000000E+00
  0.00000000E+00  0.00000000E+00  1.00000000E+00  0.00000000E+00  0.00000000E+00
  0.00000000E+00  0.00000000E+00  1.00000000E+00  0.00000000E+00  0.00000000E+00
  0.00000000E+00  0.00000000E+00  0.00000000E+00  1.00000000E+00  1.00000000E+00
  0.00000000E+00  1.00000000E+00  0.00000000E+00  0.00000000E+00  0.00000000E+00
  0.00000000E+00  0.00000000E+00  0.00000000E+00  0.00000000E+00  0.00000000E+00
  0.00000000E+00  0.00000000E+00
MxBond                                     I                4
NBond                                      I   N=          19
           4           4           1           1           1           2
           1           4           4           2           1           2
           1           2           1           2           1           1
           1
IBond                                      I   N=          76
           2           6           8           9           1           3
           4           5           2           0           0           0
           2           0           0           0           2           0
           0           0           1           7           0           0
           6           0           0           0           1          10
          12          19           1          14          16          18
           8          11           0           0          10           0
           0           0           8          13           0           0
          12           0           0           0           9          15
           0           0          14           0           0           0
           9          17           0           0          16           0
           0           0           9           0           0           0
           8           0           0           0
RBond                                      R   N=          76
  1.00000000E+00  1.00000000E+00  1.00000000E+00  1.00000000E+00  1.00000000E+00
  1.00000000E+00  1.00000000E+00  1.00000000E+00  1.00000000E+00  0.00000000E+00
  0.00000000E+00  0.00000000E+00  1.00000000E+00  0.00000000E+00  0.00000000E+00
  0.00000000E+00  1.00000000E+00  0.00000000E+00  0.00000000E+00  0.00000000E+00
  1.00000000E+00  1.00000000E+00  0.00000000E+00  0.00000000E+00  1.00000000E+00
  0.00000000E+00  0.00000000E+00  0.00000000E+00  1.00000000E+00  1.00000000E+00
  1.00000000E+00  2.00000000E+00  1.00000000E+00  1.00000000E+00  1.00000000E+00
  2.00000000E+00  1.00000000E+00  1.00000000E+00  0.00000000E+00  0.00000000E+00
  1.00000000E+00  0.00000000E+00  0.00000000E+00  0.00000000E+00  1.00000000E+00
  1.00000000E+00  0.00000000E+00  0.00000000E+00  1.00000000E+00  0.00000000E+00
  0.00000000E+00  0.00000000E+00  1.00000000E+00  1.00000000E+00  0.00000000E+00
  0.00000000E+00  1.00000000E+00  0.00000000E+00  0.00000000E+00  0.00000000E+00
  1.00000000E+00  1.00000000E+00  0.00000000E+00  0.00000000E+00  1.00000000E+00
  0.00000000E+00  0.00000000E+00  0.00000000E+00  2.00000000E+00  0.00000000E+00
  0.00000000E+00  0.00000000E+00  2.00000000E+00  0.00000000E+00  0.00000000E+00
  0.00000000E+00
Virial Ratio                               R      2.006188669396188E+00
SCF Energy                                 R     -1.290455420887018E+03
Total Energy                               R     -1.290455420887018E+03
RMS Density                                R      4.570819602484394E-09
Job Status                                 I                1
Nuclear derivative order                   I                0
External E-field                           R   N=          35
  0.00000000E+00  0.00000000E+00  0.00000000E+00  0.00000000E+00  0.00000000E+00
  0.00000000E+00  0.00000000E+00  0.00000000E+00  0.00000000E+00  0.00000000E+00
  0.00000000E+00  0.00000000E+00  0.00000000E+00  0.00000000E+00  0.00000000E+00
  0.00000000E+00  0.00000000E+00  0.00000000E+00  0.00000000E+00  0.00000000E+00
  0.00000000E+00  0.00000000E+00  0.00000000E+00  0.00000000E+00  0.00000000E+00
  0.00000000E+00  0.00000000E+00  0.00000000E+00  0.00000000E+00  0.00000000E+00
  0.00000000E+00  0.00000000E+00  0.00000000E+00  0.00000000E+00  0.00000000E+00
IOpCl                                      I                0
IROHF                                      I                0
Alpha Orbital Energies                     R   N=         213
 -7.72495040E+01 -7.72195474E+01 -1.92161526E+01 -1.92142006E+01 -1.91932934E+01
 -1.91787051E+01 -1.91742127E+01 -1.91488562E+01 -1.91107854E+01 -1.02832638E+01
 -1.02036789E+01 -6.69937911E+00 -6.66948057E+00 -4.86367270E+00 -4.86263347E+00
 -4.86016757E+00 -4.83375817E+00 -4.83243106E+00 -4.83068672E+00 -1.10960149E+00
 -1.07847576E+00 -1.06335065E+00 -1.05042497E+00 -1.03205859E+00 -9.95274677E-01
 -9.60094832E-01 -7.88647635E-01 -6.89738433E-01 -6.53402125E-01 -6.03691240E-01
 -5.78562104E-01 -5.61260193E-01 -5.45195519E-01 -5.15329758E-01 -4.94900011E-01
 -4.54860165E-01 -4.52923925E-01 -4.38935666E-01 -4.24513894E-01 -4.16983661E-01