 Entering Gaussian System, Link 0=g16
 Input=etidronate_anion_scf_g09.com
 Output=etidronate_anion_scf_g09.log
 Initial command:
 /usr/local//g16/l1.exe "/home/orison/scrgauss/Gau-21814.inp" -scrdir="/home/orison/scrgauss/"
 Entering Link 1 = /usr/local//g16/l1.exe PID=     21816.
  
 Copyright (c) 1988,1990,1992,1993,1995,1998,2003,2009,2016,
            Gaussian, Inc.  All Rights Reserved.
  
 This is part of the Gaussian(R) 16 program.  It is based on
 the Gaussian(R) 09 system (copyright 2009, Gaussian, Inc.),
 the Gaussian(R) 03 system (copyright 2003, Gaussian, Inc.),
 the Gaussian(R) 98 system (copyright 1998, Gaussian, Inc.),
 the Gaussian(R) 94 system (copyright 1995, Gaussian, Inc.),
 the Gaussian 92(TM) system (copyright 1992, Gaussian, Inc.),
 the Gaussian 90(TM) system (copyright 1990, Gaussian, Inc.),
 the Gaussian 88(TM) system (copyright 1988, Gaussian, Inc.),
 the Gaussian 86(TM) system (copyright 1986, Carnegie Mellon
 University), and the Gaussian 82(TM) system (copyright 1983,
 Carnegie Mellon University). Gaussian is a federally registered
 trademark of Gaussian, Inc.
  
 This software contains proprietary and confidential information,
 including trade secrets, belonging to Gaussian, Inc.
  
 This software is provided under written license and may be
 used, copied, transmitted, or stored only in accord with that
 written license.
  
 The following legend is applicable only to US Government
 contracts under FAR:
  
                    RESTRICTED RIGHTS LEGEND
  
 Use, reproduction and disclosure by the US Government is
 subject to restrictions as set forth in subparagraphs (a)
 and (c) of the Commercial Computer Software - Restricted
 Rights clause in FAR 52.227-19.
  
 Gaussian, Inc.
 340 Quinnipiac St., Bldg. 40, Wallingford CT 06492
  
  
 ---------------------------------------------------------------
 Warning -- This program may not be used in any manner that
 competes with the business of Gaussian, Inc. or will provide
 assistance to any competitor of Gaussian, Inc.  The licensee
 of this program is prohibited from giving any competitor of
 Gaussian, Inc. access to this program.  By using this program,
 the user acknowledges that Gaussian, Inc. is engaged in the
 business of creating and licensing software in the field of
 computational chemistry and represents and warrants to the
 licensee that it is not a competitor of Gaussian, Inc. and that
 it will not use this program in any manner prohibited above.
 ---------------------------------------------------------------
  

 Cite this work as:
 Gaussian 16, Revision A.03,
 M. J. Frisch, G. W. Trucks, H. B. Schlegel, G. E. Scuseria, 
 M. A. Robb, J. R. Cheeseman, G. Scalmani, V. Barone, 
 G. A. Petersson, H. Nakatsuji, X. Li, M. Caricato, A. V. Marenich, 
 J. Bloino, B. G. Janesko, R. Gomperts, B. Mennucci, H. P. Hratchian, 
 J. V. Ortiz, A. F. Izmaylov, J. L. Sonnenberg, D. Williams-Young, 
 F. Ding, F. Lipparini, F. Egidi, J. Goings, B. Peng, A. Petrone, 
 T. Henderson, D. Ranasinghe, V. G. Zakrzewski, J. Gao, N. Rega, 
 G. Zheng, W. Liang, M. Hada, M. Ehara, K. Toyota, R. Fukuda, 
 J. Hasegawa, M. Ishida, T. Nakajima, Y. Honda, O. Kitao, H. Nakai, 
 T. Vreven, K. Throssell, J. A. Montgomery, Jr., J. E. Peralta, 
 F. Ogliaro, M. J. Bearpark, J. J. Heyd, E. N. Brothers, K. N. Kudin, 
 V. N. Staroverov, T. A. Keith, R. Kobayashi, J. Normand, 
 K. Raghavachari, A. P. Rendell, J. C. Burant, S. S. Iyengar, 
 J. Tomasi, M. Cossi, J. M. Millam, M. Klene, C. Adamo, R. Cammi, 
 J. W. Ochterski, R. L. Martin, K. Morokuma, O. Farkas, 
 J. B. Foresman, and D. J. Fox, Gaussian, Inc., Wallingford CT, 2016.
 
 ******************************************
 Gaussian 16:  EM64L-G16RevA.03 25-Dec-2016
                22-Jan-2021 
 ******************************************
 %nproc=8
 Will use up to    8 processors via shared memory.
 %Mem=4GB
 ----------------------------------------------------------------------
 #t B3LYP/6-31G(d,p) # Gfinput IOP(6/7=3) Pop=hirshfeld Density Test # 
 Units(Ang,Deg)
 ----------------------------------------------------------------------
 ----------------------
 etidronate-opt-g09.log
 ----------------------
 Symbolic Z-matrix:
 Charge = -1 Multiplicity = 2
 C                    -0.0264    0.80416  -0.14419 
 C                    -0.00302   1.95251   0.87016 
 H                     0.01478   1.57511   1.8967 
 H                     0.87217   2.58124   0.69369 
 H                    -0.90857   2.54767   0.73747 
 O                    -0.01024   1.37999  -1.43643 
 H                    -0.12059   0.66428  -2.08173 
 P                     1.46432  -0.28297   0.09094 
 P                    -1.61343  -0.16664   0.10037 
 O                     1.70689  -0.82228  -1.40777 
 H                     2.23866  -1.63206  -1.42243 
 O                     2.75008   0.66831   0.34412 
 H                     3.0183    0.63789   1.27462 
 O                    -1.37276  -1.08775   1.38538 
 H                    -0.43907  -1.41309   1.45014 
 O                    -1.50828  -1.12954  -1.21896 
 H                    -2.39492  -1.31128  -1.56573 
 O                    -2.85196   0.64138   0.15505 
 O                     1.30284  -1.33083   1.15259 
 
                    Distance matrix (angstroms):
                    1          2          3          4          5
     1  C    0.000000
     2  C    1.532371   0.000000
     3  H    2.182038   1.093861   0.000000
     4  H    2.160436   1.091971   1.787358   0.000000
     5  H    2.143683   1.091716   1.772643   1.781594   0.000000
     6  O    1.414824   2.376592   3.338930   2.599819   2.626084
     7  H    1.944865   3.222889   4.083606   3.516143   3.480799
     8  P    1.859942   2.785254   2.968905   2.986243   3.749817
     9  P    1.876413   2.770703   2.985224   3.752477   2.875796
    10  O    2.691883   3.976458   4.419303   4.086177   4.774856
    11  H    3.563645   4.809391   5.123300   4.908885   5.660421
    12  O    2.822365   3.083091   3.273325   2.703340   4.131881
    13  H    3.363163   3.319667   3.207257   2.952958   4.399557
    14  O    2.780574   3.374140   3.045905   4.356562   3.721765
    15  H    2.761953   3.442932   3.055280   4.271562   4.051660
    16  O    2.662761   4.016125   4.397975   4.805690   4.208223
    17  H    3.479332   4.723036   5.111391   5.561526   4.733441
    18  O    2.846020   3.216660   3.481867   4.233478   2.783868
    19  O    2.829611   3.544765   3.264550   3.962368   4.483907
                    6          7          8          9         10
     6  O    0.000000
     7  H    0.969964   0.000000
     8  P    2.696780   2.851266   0.000000
     9  P    2.706296   2.771382   3.079962   0.000000
    10  O    2.792732   2.450258   1.611157   3.705250   0.000000
    11  H    3.759015   3.357665   2.170238   4.393742   0.968885
    12  O    3.360984   3.758392   1.619325   4.449357   2.525712
    13  H    4.131895   4.595477   2.159615   4.845519   3.323719
    14  O    3.988585   4.081469   3.220601   1.599255   4.166102
    15  H    4.039490   4.109866   2.597593   2.180513   3.622409
    16  O    2.930727   2.426488   3.356914   1.636724   3.235332
    17  H    3.598104   3.056415   4.323854   2.167214   4.133874
    18  O    3.339719   3.530452   4.414613   1.479812   5.036648
    19  O    3.971870   4.058010   1.500396   3.311667   2.641462
                   11         12         13         14         15
    11  H    0.000000
    12  O    2.945157   0.000000
    13  H    3.610345   0.968864   0.000000
    14  O    4.606780   4.600628   4.719270   0.000000
    15  H    3.933172   3.965625   4.023771   0.990867   0.000000
    16  O    3.785959   4.879458   5.461838   2.608198   2.889240
    17  H    4.646880   5.834152   6.416370   3.131106   3.595996
    18  O    5.794082   5.605294   5.976069   2.586819   3.423469
    19  O    2.756307   2.597054   2.614106   2.696686   1.769054
                   16         17         18         19
    16  O    0.000000
    17  H    0.969231   0.000000
    18  O    2.613338   2.642508   0.000000
    19  O    3.683363   4.589453   4.706066   0.000000
 Framework group  C1[X(C2H8O7P2)]
 Deg. of freedom    51
                         Standard orientation:                         
 ---------------------------------------------------------------------
 Center     Atomic      Atomic             Coordinates (Angstroms)
 Number     Number       Type             X           Y           Z
 ---------------------------------------------------------------------
      1          6           0        0.026403    0.804161    0.144190
      2          6           0        0.003026    1.952511   -0.870160
      3          1           0       -0.014775    1.575111   -1.896700
      4          1           0       -0.872163    2.581243   -0.693690
      5          1           0        0.908577    2.547669   -0.737470
      6          8           0        0.010244    1.379991    1.436430
      7          1           0        0.120593    0.664281    2.081730
      8         15           0       -1.464319   -0.282966   -0.090940
      9         15           0        1.613431   -0.166642   -0.100370
     10          8           0       -1.706890   -0.822275    1.407770
     11          1           0       -2.238662   -1.632054    1.422430
     12          8           0       -2.750077    0.668317   -0.344120
     13          1           0       -3.018297    0.637898   -1.274620
     14          8           0        1.372759   -1.087752   -1.385380
     15          1           0        0.439068   -1.413090   -1.450140
     16          8           0        1.508279   -1.129542    1.218960
     17          1           0        2.394919   -1.311284    1.565730
     18          8           0        2.851963    0.641375   -0.155050
     19          8           0       -1.302841   -1.330826   -1.152590
 ---------------------------------------------------------------------
 Rotational constants (GHZ):           1.3574319           0.6941555           0.6608461
 AO basis set in the form of general basis input (Overlap normalization):
      1 0
 S   6 1.00       0.000000000000
      0.3047524880D+04  0.1834737132D-02
      0.4573695180D+03  0.1403732281D-01
      0.1039486850D+03  0.6884262226D-01
      0.2921015530D+02  0.2321844432D+00
      0.9286662960D+01  0.4679413484D+00
      0.3163926960D+01  0.3623119853D+00
 SP   3 1.00       0.000000000000
      0.7868272350D+01 -0.1193324198D+00  0.6899906659D-01
      0.1881288540D+01 -0.1608541517D+00  0.3164239610D+00
      0.5442492580D+00  0.1143456438D+01  0.7443082909D+00
 SP   1 1.00       0.000000000000
      0.1687144782D+00  0.1000000000D+01  0.1000000000D+01
 D   1 1.00       0.000000000000
      0.8000000000D+00  0.1000000000D+01
 ****
      2 0
 S   6 1.00       0.000000000000
      0.3047524880D+04  0.1834737132D-02
      0.4573695180D+03  0.1403732281D-01
      0.1039486850D+03  0.6884262226D-01
      0.2921015530D+02  0.2321844432D+00
      0.9286662960D+01  0.4679413484D+00
      0.3163926960D+01  0.3623119853D+00
 SP   3 1.00       0.000000000000
      0.7868272350D+01 -0.1193324198D+00  0.6899906659D-01
      0.1881288540D+01 -0.1608541517D+00  0.3164239610D+00
      0.5442492580D+00  0.1143456438D+01  0.7443082909D+00
 SP   1 1.00       0.000000000000
      0.1687144782D+00  0.1000000000D+01  0.1000000000D+01
 D   1 1.00       0.000000000000
      0.8000000000D+00  0.1000000000D+01
 ****
      3 0
 S   3 1.00       0.000000000000
      0.1873113696D+02  0.3349460434D-01
      0.2825394365D+01  0.2347269535D+00
      0.6401216923D+00  0.8137573261D+00
 S   1 1.00       0.000000000000
      0.1612777588D+00  0.1000000000D+01
 P   1 1.00       0.000000000000
      0.1100000000D+01  0.1000000000D+01
 ****
      4 0
 S   3 1.00       0.000000000000
      0.1873113696D+02  0.3349460434D-01
      0.2825394365D+01  0.2347269535D+00
      0.6401216923D+00  0.8137573261D+00
 S   1 1.00       0.000000000000
      0.1612777588D+00  0.1000000000D+01
 P   1 1.00       0.000000000000
      0.1100000000D+01  0.1000000000D+01
 ****
      5 0
 S   3 1.00       0.000000000000
      0.1873113696D+02  0.3349460434D-01
      0.2825394365D+01  0.2347269535D+00
      0.6401216923D+00  0.8137573261D+00
 S   1 1.00       0.000000000000
      0.1612777588D+00  0.1000000000D+01
 P   1 1.00       0.000000000000
      0.1100000000D+01  0.1000000000D+01
 ****
      6 0
 S   6 1.00       0.000000000000
      0.5484671660D+04  0.1831074430D-02
      0.8252349460D+03  0.1395017220D-01
      0.1880469580D+03  0.6844507810D-01
      0.5296450000D+02  0.2327143360D+00
      0.1689757040D+02  0.4701928980D+00
      0.5799635340D+01  0.3585208530D+00
 SP   3 1.00       0.000000000000
      0.1553961625D+02 -0.1107775495D+00  0.7087426823D-01
      0.3599933586D+01 -0.1480262627D+00  0.3397528391D+00
      0.1013761750D+01  0.1130767015D+01  0.7271585773D+00
 SP   1 1.00       0.000000000000
      0.2700058226D+00  0.1000000000D+01  0.1000000000D+01
 D   1 1.00       0.000000000000
      0.8000000000D+00  0.1000000000D+01
 ****
      7 0
 S   3 1.00       0.000000000000
      0.1873113696D+02  0.3349460434D-01
      0.2825394365D+01  0.2347269535D+00
      0.6401216923D+00  0.8137573261D+00
 S   1 1.00       0.000000000000
      0.1612777588D+00  0.1000000000D+01
 P   1 1.00       0.000000000000
      0.1100000000D+01  0.1000000000D+01
 ****
      8 0
 S   6 1.00       0.000000000000
      0.1941330000D+05  0.1851598923D-02
      0.2909420000D+04  0.1420619174D-01
      0.6613640000D+03  0.6999945928D-01
      0.1857590000D+03  0.2400788603D+00
      0.5919430000D+02  0.4847617180D+00
      0.2003100000D+02  0.3351998050D+00
 SP   6 1.00       0.000000000000
      0.3394780000D+03 -0.2782170105D-02  0.4564616191D-02
      0.8101010000D+02 -0.3604990135D-01  0.3369357188D-01
      0.2587800000D+02 -0.1166310044D+00  0.1397548834D+00
      0.9452210000D+01  0.9683280364D-01  0.3393617168D+00
      0.3665660000D+01  0.6144180231D+00  0.4509206237D+00
      0.1467460000D+01  0.4037980152D+00  0.2385858009D+00
 SP   3 1.00       0.000000000000
      0.2156230000D+01 -0.2529241139D+00 -0.1776531273D-01
      0.7489970000D+00  0.3285184468D-01  0.2740581964D+00
      0.2831450000D+00  0.1081254762D+01  0.7854215630D+00
 SP   1 1.00       0.000000000000
      0.9983170000D-01  0.1000000000D+01  0.1000000000D+01
 D   1 1.00       0.000000000000
      0.5500000000D+00  0.1000000000D+01
 ****
      9 0
 S   6 1.00       0.000000000000
      0.1941330000D+05  0.1851598923D-02
      0.2909420000D+04  0.1420619174D-01
      0.6613640000D+03  0.6999945928D-01
      0.1857590000D+03  0.2400788603D+00
      0.5919430000D+02  0.4847617180D+00
      0.2003100000D+02  0.3351998050D+00
 SP   6 1.00       0.000000000000
      0.3394780000D+03 -0.2782170105D-02  0.4564616191D-02
      0.8101010000D+02 -0.3604990135D-01  0.3369357188D-01
      0.2587800000D+02 -0.1166310044D+00  0.1397548834D+00
      0.9452210000D+01  0.9683280364D-01  0.3393617168D+00
      0.3665660000D+01  0.6144180231D+00  0.4509206237D+00
      0.1467460000D+01  0.4037980152D+00  0.2385858009D+00
 SP   3 1.00       0.000000000000
      0.2156230000D+01 -0.2529241139D+00 -0.1776531273D-01
      0.7489970000D+00  0.3285184468D-01  0.2740581964D+00
      0.2831450000D+00  0.1081254762D+01  0.7854215630D+00
 SP   1 1.00       0.000000000000
      0.9983170000D-01  0.1000000000D+01  0.1000000000D+01
 D   1 1.00       0.000000000000
      0.5500000000D+00  0.1000000000D+01
 ****
     10 0
 S   6 1.00       0.000000000000
      0.5484671660D+04  0.1831074430D-02
      0.8252349460D+03  0.1395017220D-01
      0.1880469580D+03  0.6844507810D-01
      0.5296450000D+02  0.2327143360D+00
      0.1689757040D+02  0.4701928980D+00
      0.5799635340D+01  0.3585208530D+00
 SP   3 1.00       0.000000000000
      0.1553961625D+02 -0.1107775495D+00  0.7087426823D-01
      0.3599933586D+01 -0.1480262627D+00  0.3397528391D+00
      0.1013761750D+01  0.1130767015D+01  0.7271585773D+00
 SP   1 1.00       0.000000000000
      0.2700058226D+00  0.1000000000D+01  0.1000000000D+01
 D   1 1.00       0.000000000000
      0.8000000000D+00  0.1000000000D+01
 ****
     11 0
 S   3 1.00       0.000000000000
      0.1873113696D+02  0.3349460434D-01
      0.2825394365D+01  0.2347269535D+00
      0.6401216923D+00  0.8137573261D+00
 S   1 1.00       0.000000000000
      0.1612777588D+00  0.1000000000D+01
 P   1 1.00       0.000000000000
      0.1100000000D+01  0.1000000000D+01
 ****
     12 0
 S   6 1.00       0.000000000000
      0.5484671660D+04  0.1831074430D-02
      0.8252349460D+03  0.1395017220D-01
      0.1880469580D+03  0.6844507810D-01
      0.5296450000D+02  0.2327143360D+00
      0.1689757040D+02  0.4701928980D+00
      0.5799635340D+01  0.3585208530D+00
 SP   3 1.00       0.000000000000
      0.1553961625D+02 -0.1107775495D+00  0.7087426823D-01
      0.3599933586D+01 -0.1480262627D+00  0.3397528391D+00
      0.1013761750D+01  0.1130767015D+01  0.7271585773D+00
 SP   1 1.00       0.000000000000
      0.2700058226D+00  0.1000000000D+01  0.1000000000D+01
 D   1 1.00       0.000000000000
      0.8000000000D+00  0.1000000000D+01
 ****
     13 0
 S   3 1.00       0.000000000000
      0.1873113696D+02  0.3349460434D-01
      0.2825394365D+01  0.2347269535D+00
      0.6401216923D+00  0.8137573261D+00
 S   1 1.00       0.000000000000
      0.1612777588D+00  0.1000000000D+01
 P   1 1.00       0.000000000000
      0.1100000000D+01  0.1000000000D+01
 ****
     14 0
 S   6 1.00       0.000000000000
      0.5484671660D+04  0.1831074430D-02
      0.8252349460D+03  0.1395017220D-01
      0.1880469580D+03  0.6844507810D-01
      0.5296450000D+02  0.2327143360D+00
      0.1689757040D+02  0.4701928980D+00
      0.5799635340D+01  0.3585208530D+00
 SP   3 1.00       0.000000000000
      0.1553961625D+02 -0.1107775495D+00  0.7087426823D-01
      0.3599933586D+01 -0.1480262627D+00  0.3397528391D+00
      0.1013761750D+01  0.1130767015D+01  0.7271585773D+00
 SP   1 1.00       0.000000000000
      0.2700058226D+00  0.1000000000D+01  0.1000000000D+01
 D   1 1.00       0.000000000000
      0.8000000000D+00  0.1000000000D+01
 ****
     15 0
 S   3 1.00       0.000000000000
      0.1873113696D+02  0.3349460434D-01
      0.2825394365D+01  0.2347269535D+00
      0.6401216923D+00  0.8137573261D+00
 S   1 1.00       0.000000000000
      0.1612777588D+00  0.1000000000D+01
 P   1 1.00       0.000000000000
      0.1100000000D+01  0.1000000000D+01
 ****
     16 0
 S   6 1.00       0.000000000000
      0.5484671660D+04  0.1831074430D-02
      0.8252349460D+03  0.1395017220D-01
      0.1880469580D+03  0.6844507810D-01
      0.5296450000D+02  0.2327143360D+00
      0.1689757040D+02  0.4701928980D+00
      0.5799635340D+01  0.3585208530D+00
 SP   3 1.00       0.000000000000
      0.1553961625D+02 -0.1107775495D+00  0.7087426823D-01
      0.3599933586D+01 -0.1480262627D+00  0.3397528391D+00
      0.1013761750D+01  0.1130767015D+01  0.7271585773D+00
 SP   1 1.00       0.000000000000
      0.2700058226D+00  0.1000000000D+01  0.1000000000D+01
 D   1 1.00       0.000000000000
      0.8000000000D+00  0.1000000000D+01
 ****
     17 0
 S   3 1.00       0.000000000000
      0.1873113696D+02  0.3349460434D-01
      0.2825394365D+01  0.2347269535D+00
      0.6401216923D+00  0.8137573261D+00
 S   1 1.00       0.000000000000
      0.1612777588D+00  0.1000000000D+01
 P   1 1.00       0.000000000000
      0.1100000000D+01  0.1000000000D+01
 ****
     18 0
 S   6 1.00       0.000000000000
      0.5484671660D+04  0.1831074430D-02
      0.8252349460D+03  0.1395017220D-01
      0.1880469580D+03  0.6844507810D-01
      0.5296450000D+02  0.2327143360D+00
      0.1689757040D+02  0.4701928980D+00
      0.5799635340D+01  0.3585208530D+00
 SP   3 1.00       0.000000000000
      0.1553961625D+02 -0.1107775495D+00  0.7087426823D-01
      0.3599933586D+01 -0.1480262627D+00  0.3397528391D+00
      0.1013761750D+01  0.1130767015D+01  0.7271585773D+00
 SP   1 1.00       0.000000000000
      0.2700058226D+00  0.1000000000D+01  0.1000000000D+01
 D   1 1.00       0.000000000000
      0.8000000000D+00  0.1000000000D+01
 ****
     19 0
 S   6 1.00       0.000000000000
      0.5484671660D+04  0.1831074430D-02
      0.8252349460D+03  0.1395017220D-01
      0.1880469580D+03  0.6844507810D-01
      0.5296450000D+02  0.2327143360D+00
      0.1689757040D+02  0.4701928980D+00
      0.5799635340D+01  0.3585208530D+00
 SP   3 1.00       0.000000000000
      0.1553961625D+02 -0.1107775495D+00  0.7087426823D-01
      0.3599933586D+01 -0.1480262627D+00  0.3397528391D+00
      0.1013761750D+01  0.1130767015D+01  0.7271585773D+00
 SP   1 1.00       0.000000000000
      0.2700058226D+00  0.1000000000D+01  0.1000000000D+01
 D   1 1.00       0.000000000000
      0.8000000000D+00  0.1000000000D+01
 ****

   213 basis functions,   412 primitive gaussians,   213 cartesian basis functions
    54 alpha electrons       53 beta electrons
       nuclear repulsion energy      1023.6350291807 Hartrees.
 NAtoms=   19 NActive=   19 NUniq=   19 SFac= 1.00D+00 NAtFMM=   60 NAOKFM=F Big=F
 ExpMin= 9.98D-02 ExpMax= 1.94D+04 ExpMxC= 2.91D+03 IAcc=3 IRadAn=         5 AccDes= 0.00D+00
 Harris functional with IExCor=  402 and IRadAn=       5 diagonalized for initial guess.
 HarFok:  IExCor=  402 AccDes= 0.00D+00 IRadAn=         5 IDoV= 1 UseB2=F ITyADJ=14
 ICtDFT=  3500011 ScaDFX=  1.000000  1.000000  1.000000  1.000000
 FoFCou: FMM=F IPFlag=           0 FMFlag=      100000 FMFlg1=           0
         NFxFlg=           0 DoJE=T BraDBF=F KetDBF=T FulRan=T
         wScrn=  0.000000 ICntrl=       500 IOpCl=  0 I1Cent=   200000004 NGrid=           0
         NMat0=    1 NMatS0=      1 NMatT0=    0 NMatD0=    1 NMtDS0=    0 NMtDT0=    0
 Petite list used in FoFCou.
 Initial guess <Sx>= 0.0000 <Sy>= 0.0000 <Sz>= 0.5000 <S**2>= 0.7500 S= 0.5000
 Integral accuracy reduced to 1.0D-05 until final iterations.
 Initial convergence to 1.0D-05 achieved.  Increase integral accuracy.
 SCF Done:  E(UB3LYP) =  -1290.38386937     A.U. after   21 cycles
            NFock= 21  Conv=0.68D-08     -V/T= 2.0056
 <Sx>= 0.0000 <Sy>= 0.0000 <Sz>= 0.5000 <S**2>= 0.7514 S= 0.5007
 <L.S>= 0.000000000000E+00
 Annihilation of the first spin contaminant:
 S**2 before annihilation     0.7514,   after     0.7500

 **********************************************************************

            Population analysis using the SCF density.

 **********************************************************************

 Orbital symmetries:
 Alpha Orbitals:
       Occupied  (A) (A) (A) (A) (A) (A) (A) (A) (A) (A) (A) (A)
                 (A) (A) (A) (A) (A) (A) (A) (A) (A) (A) (A) (A)
                 (A) (A) (A) (A) (A) (A) (A) (A) (A) (A) (A) (A)
                 (A) (A) (A) (A) (A) (A) (A) (A) (A) (A) (A) (A)
                 (A) (A) (A) (A) (A) (A)
       Virtual   (A) (A) (A) (A) (A) (A) (A) (A) (A) (A) (A) (A)
                 (A) (A) (A) (A) (A) (A) (A) (A) (A) (A) (A) (A)
                 (A) (A) (A) (A) (A) (A) (A) (A) (A) (A) (A) (A)
                 (A) (A) (A) (A) (A) (A) (A) (A) (A) (A) (A) (A)
                 (A) (A) (A) (A) (A) (A) (A) (A) (A) (A) (A) (A)
                 (A) (A) (A) (A) (A) (A) (A) (A) (A) (A) (A) (A)
                 (A) (A) (A) (A) (A) (A) (A) (A) (A) (A) (A) (A)
                 (A) (A) (A) (A) (A) (A) (A) (A) (A) (A) (A) (A)
                 (A) (A) (A) (A) (A) (A) (A) (A) (A) (A) (A) (A)
                 (A) (A) (A) (A) (A) (A) (A) (A) (A) (A) (A) (A)
                 (A) (A) (A) (A) (A) (A) (A) (A) (A) (A) (A) (A)
                 (A) (A) (A) (A) (A) (A) (A) (A) (A) (A) (A) (A)
                 (A) (A) (A) (A) (A) (A) (A) (A) (A) (A) (A) (A)
                 (A) (A) (A)
 Beta  Orbitals:
       Occupied  (A) (A) (A) (A) (A) (A) (A) (A) (A) (A) (A) (A)
                 (A) (A) (A) (A) (A) (A) (A) (A) (A) (A) (A) (A)
                 (A) (A) (A) (A) (A) (A) (A) (A) (A) (A) (A) (A)
                 (A) (A) (A) (A) (A) (A) (A) (A) (A) (A) (A) (A)
                 (A) (A) (A) (A) (A)
       Virtual   (A) (A) (A) (A) (A) (A) (A) (A) (A) (A) (A) (A)
                 (A) (A) (A) (A) (A) (A) (A) (A) (A) (A) (A) (A)
                 (A) (A) (A) (A) (A) (A) (A) (A) (A) (A) (A) (A)
                 (A) (A) (A) (A) (A) (A) (A) (A) (A) (A) (A) (A)
                 (A) (A) (A) (A) (A) (A) (A) (A) (A) (A) (A) (A)
                 (A) (A) (A) (A) (A) (A) (A) (A) (A) (A) (A) (A)
                 (A) (A) (A) (A) (A) (A) (A) (A) (A) (A) (A) (A)
                 (A) (A) (A) (A) (A) (A) (A) (A) (A) (A) (A) (A)
                 (A) (A) (A) (A) (A) (A) (A) (A) (A) (A) (A) (A)
                 (A) (A) (A) (A) (A) (A) (A) (A) (A) (A) (A) (A)
                 (A) (A) (A) (A) (A) (A) (A) (A) (A) (A) (A) (A)
                 (A) (A) (A) (A) (A) (A) (A) (A) (A) (A) (A) (A)
                 (A) (A) (A) (A) (A) (A) (A) (A) (A) (A) (A) (A)
                 (A) (A) (A) (A)
 The electronic state is 2-A.
 Alpha  occ. eigenvalues --  -77.05702 -77.05119 -19.03267 -19.02120 -19.01283
 Alpha  occ. eigenvalues --  -19.00940 -19.00853 -18.96949 -18.95554 -10.10422
 Alpha  occ. eigenvalues --  -10.04990  -6.50705  -6.50165  -4.67139  -4.66984
 Alpha  occ. eigenvalues --   -4.66801  -4.66589  -4.66465  -4.66251  -0.92366
 Alpha  occ. eigenvalues --   -0.91134  -0.88299  -0.87602  -0.86451  -0.81582
 Alpha  occ. eigenvalues --   -0.80701  -0.62410  -0.51577  -0.47935  -0.43882
 Alpha  occ. eigenvalues --   -0.40896  -0.38330  -0.37042  -0.34417  -0.31216
 Alpha  occ. eigenvalues --   -0.29721  -0.27908  -0.27072  -0.26201  -0.25863
 Alpha  occ. eigenvalues --   -0.25239  -0.23943  -0.22316  -0.21470  -0.20784
 Alpha  occ. eigenvalues --   -0.18903  -0.18539  -0.17682  -0.17031  -0.14924
 Alpha  occ. eigenvalues --   -0.14328  -0.13988  -0.10641   0.13503
 Alpha virt. eigenvalues --    0.18216   0.19853   0.21686   0.22986   0.25426
 Alpha virt. eigenvalues --    0.26525   0.27122   0.28547   0.28799   0.29345
 Alpha virt. eigenvalues --    0.30987   0.31465   0.33885   0.35886   0.36376
 Alpha virt. eigenvalues --    0.38010   0.42416   0.46470   0.48383   0.52465
 Alpha virt. eigenvalues --    0.52912   0.55912   0.56638   0.57608   0.59754
 Alpha virt. eigenvalues --    0.66002   0.69460   0.72028   0.72662   0.75638
 Alpha virt. eigenvalues --    0.80370   0.83792   0.85926   0.89307   0.90080
 Alpha virt. eigenvalues --    0.91606   0.93496   0.94276   0.95718   0.97049
 Alpha virt. eigenvalues --    0.99679   1.00669   1.02016   1.02585   1.03393
 Alpha virt. eigenvalues --    1.05909   1.07738   1.08037   1.08246   1.11434
 Alpha virt. eigenvalues --    1.11948   1.12682   1.13584   1.15371   1.17186
 Alpha virt. eigenvalues --    1.17611   1.18630   1.19409   1.21122   1.22980
 Alpha virt. eigenvalues --    1.25077   1.28303   1.29502   1.31200   1.33342
 Alpha virt. eigenvalues --    1.34411   1.35538   1.39439   1.41854   1.44251
 Alpha virt. eigenvalues --    1.48262   1.51067   1.53922   1.56667   1.58729
 Alpha virt. eigenvalues --    1.62116   1.64910   1.67019   1.71626   1.72185
 Alpha virt. eigenvalues --    1.73253   1.74030   1.76874   1.79626   1.81854
 Alpha virt. eigenvalues --    1.82512   1.84873   1.88332   1.90333   1.93176
 Alpha virt. eigenvalues --    1.93968   1.96026   1.97502   1.99148   1.99333
 Alpha virt. eigenvalues --    2.01233   2.02666   2.04833   2.05597   2.14938
 Alpha virt. eigenvalues --    2.15449   2.17225   2.18635   2.20974   2.22127
 Alpha virt. eigenvalues --    2.23160   2.26236   2.28066   2.31186   2.32977
 Alpha virt. eigenvalues --    2.34484   2.45540   2.48006   2.48930   2.52953
 Alpha virt. eigenvalues --    2.55431   2.55732   2.57237   2.60429   2.63750
 Alpha virt. eigenvalues --    2.66106   2.66573   2.73557   2.77317   2.77840
 Alpha virt. eigenvalues --    2.78475   2.78750   2.79694   2.81841   2.83720
 Alpha virt. eigenvalues --    2.86183   2.87260   2.88127   2.92746   2.93997
 Alpha virt. eigenvalues --    2.98595   3.01415   3.02747   3.08399   3.15557
 Alpha virt. eigenvalues --    3.36031   3.49376   3.50903   3.52048   3.56400
 Alpha virt. eigenvalues --    3.57886   3.60490   3.61700   3.68185   3.72139
 Alpha virt. eigenvalues --    3.91702   4.07750   4.15535   4.16458   4.21446
 Alpha virt. eigenvalues --    4.34843   4.37524   4.49507   4.72567
  Beta  occ. eigenvalues --  -77.05679 -77.05052 -19.03138 -19.02094 -19.00971
  Beta  occ. eigenvalues --  -19.00751 -19.00586 -18.96918 -18.95467 -10.10267
  Beta  occ. eigenvalues --  -10.04970  -6.50668  -6.50071  -4.67112  -4.66952
  Beta  occ. eigenvalues --   -4.66780  -4.66539  -4.66357  -4.66162  -0.92121
  Beta  occ. eigenvalues --   -0.90524  -0.88071  -0.87377  -0.85671  -0.81406
  Beta  occ. eigenvalues --   -0.80456  -0.62157  -0.51214  -0.47468  -0.43639
  Beta  occ. eigenvalues --   -0.40754  -0.37929  -0.36619  -0.34179  -0.31014
  Beta  occ. eigenvalues --   -0.29575  -0.27791  -0.26902  -0.26023  -0.25707
  Beta  occ. eigenvalues --   -0.25105  -0.23783  -0.22122  -0.21278  -0.20506
  Beta  occ. eigenvalues --   -0.18755  -0.18250  -0.17359  -0.16871  -0.14788
  Beta  occ. eigenvalues --   -0.14165  -0.13864  -0.10435
  Beta virt. eigenvalues --    0.18284   0.19702   0.21257   0.22692   0.24640
  Beta virt. eigenvalues --    0.26237   0.27131   0.27540   0.28931   0.29191
  Beta virt. eigenvalues --    0.29836   0.31654   0.31742   0.34183   0.36114
  Beta virt. eigenvalues --    0.37111   0.38310   0.42889   0.46731   0.48854
  Beta virt. eigenvalues --    0.52707   0.53168   0.56241   0.57026   0.57917
  Beta virt. eigenvalues --    0.60052   0.66194   0.69820   0.72225   0.72866
  Beta virt. eigenvalues --    0.75924   0.80549   0.83932   0.86209   0.89645
  Beta virt. eigenvalues --    0.90427   0.92278   0.94077   0.94568   0.95865
  Beta virt. eigenvalues --    0.97409   0.99839   1.00837   1.02533   1.02925
  Beta virt. eigenvalues --    1.03993   1.06192   1.07881   1.08294   1.08754
  Beta virt. eigenvalues --    1.11621   1.12154   1.12973   1.13861   1.15653
  Beta virt. eigenvalues --    1.17315   1.17825   1.18821   1.19590   1.21332
  Beta virt. eigenvalues --    1.23199   1.25301   1.28559   1.29691   1.31454
  Beta virt. eigenvalues --    1.33549   1.34680   1.35766   1.39567   1.41992
  Beta virt. eigenvalues --    1.44510   1.48473   1.51154   1.54080   1.56857
  Beta virt. eigenvalues --    1.58862   1.62273   1.65044   1.67155   1.71817
  Beta virt. eigenvalues --    1.72299   1.73440   1.74292   1.77052   1.79756
  Beta virt. eigenvalues --    1.82004   1.82705   1.85113   1.88542   1.90459
  Beta virt. eigenvalues --    1.93235   1.94050   1.96138   1.97604   1.99285
  Beta virt. eigenvalues --    1.99405   2.01356   2.02820   2.04941   2.05783
  Beta virt. eigenvalues --    2.15111   2.15698   2.17359   2.18751   2.21222
  Beta virt. eigenvalues --    2.22243   2.23329   2.26364   2.28248   2.31339
  Beta virt. eigenvalues --    2.33122   2.34627   2.45913   2.48799   2.49624
  Beta virt. eigenvalues --    2.53179   2.55719   2.56015   2.57414   2.60578
  Beta virt. eigenvalues --    2.63929   2.66331   2.66812   2.73795   2.78018
  Beta virt. eigenvalues --    2.78242   2.78946   2.79632   2.80230   2.82192
  Beta virt. eigenvalues --    2.84024   2.86415   2.88241   2.88944   2.92892
  Beta virt. eigenvalues --    2.94122   2.98721   3.01505   3.02854   3.08656
  Beta virt. eigenvalues --    3.15892   3.36112   3.49825   3.51877   3.53095
  Beta virt. eigenvalues --    3.56526   3.57988   3.60674   3.61986   3.68366
  Beta virt. eigenvalues --    3.72430   3.91886   4.08007   4.15740   4.16568
  Beta virt. eigenvalues --    4.21592   4.35122   4.37711   4.49746   4.72706
     Alpha Molecular Orbital Coefficients:
                           1         2         3         4         5
                           O         O         O         O         O
     Eigenvalues --   -77.05702 -77.05119 -19.03267 -19.02120 -19.01283
   1 1   C  1S         -0.00004  -0.00004  -0.00004   0.00000  -0.00002
   2        2S         -0.00004  -0.00003  -0.00021  -0.00003  -0.00016
   3        2PX         0.00004  -0.00004   0.00000   0.00003  -0.00003
   4        2PY        -0.00002  -0.00001  -0.00003  -0.00001  -0.00002
   5        2PZ         0.00000  -0.00000   0.00007   0.00001  -0.00006
   6        3S          0.00092   0.00095   0.00165   0.00004   0.00089
   7        3PX         0.00041  -0.00046   0.00052   0.00027  -0.00030
   8        3PY        -0.00012  -0.00015  -0.00030  -0.00028  -0.00012
   9        3PZ         0.00001   0.00005  -0.00070   0.00008   0.00010
  10        4XX        -0.00013  -0.00014  -0.00003   0.00004   0.00004
  11        4YY        -0.00009  -0.00011   0.00000   0.00002  -0.00002
  12        4ZZ        -0.00007  -0.00007  -0.00006   0.00001  -0.00002
  13        4XY         0.00003  -0.00004  -0.00003  -0.00005   0.00002
  14        4XZ         0.00002  -0.00002  -0.00002  -0.00000   0.00001
  15        4YZ         0.00001  -0.00000  -0.00001   0.00003  -0.00000
  16 2   C  1S         -0.00002  -0.00001   0.00001  -0.00003   0.00000
  17        2S         -0.00005  -0.00002   0.00007  -0.00011  -0.00002
  18        2PX        -0.00003   0.00002  -0.00001  -0.00006  -0.00002
  19        2PY         0.00004   0.00003   0.00002   0.00004  -0.00000
  20        2PZ        -0.00002  -0.00002  -0.00003   0.00001   0.00001
  21        3S          0.00012   0.00002  -0.00056   0.00051   0.00002
  22        3PX         0.00006   0.00001   0.00003   0.00045   0.00001
  23        3PY         0.00008   0.00014   0.00037  -0.00040   0.00003
  24        3PZ        -0.00012  -0.00012   0.00002   0.00006  -0.00004
  25        4XX        -0.00002  -0.00002   0.00002  -0.00006   0.00005
  26        4YY        -0.00005  -0.00004  -0.00002  -0.00003   0.00003
  27        4ZZ        -0.00005  -0.00003   0.00001  -0.00004  -0.00000
  28        4XY         0.00000  -0.00000   0.00001   0.00000   0.00002
  29        4XZ        -0.00001   0.00002  -0.00001   0.00000   0.00000
  30        4YZ         0.00001   0.00001   0.00001  -0.00001   0.00000
  31 3   H  1S          0.00000   0.00001   0.00006  -0.00006  -0.00002
  32        2S         -0.00020  -0.00019   0.00013   0.00005   0.00008
  33        3PX        -0.00003   0.00002   0.00000  -0.00001  -0.00001
  34        3PY         0.00002   0.00002  -0.00001  -0.00000  -0.00000
  35        3PZ        -0.00002  -0.00002   0.00001   0.00000   0.00001
  36 4   H  1S         -0.00000   0.00001   0.00001   0.00003   0.00006
  37        2S          0.00004  -0.00020   0.00001   0.00030  -0.00004
  38        3PX         0.00001   0.00001  -0.00001   0.00002  -0.00003
  39        3PY        -0.00001   0.00004  -0.00002  -0.00002  -0.00000
  40        3PZ         0.00001  -0.00001   0.00000  -0.00001   0.00002
  41 5   H  1S         -0.00001  -0.00001   0.00002  -0.00007  -0.00001
  42        2S         -0.00023   0.00001  -0.00014  -0.00009  -0.00003
  43        3PX        -0.00001  -0.00000   0.00001  -0.00002   0.00001
  44        3PY         0.00004  -0.00001   0.00000   0.00002   0.00001
  45        3PZ        -0.00001   0.00001  -0.00000  -0.00000   0.00001
  46 6   O  1S         -0.00000   0.00000  -0.00001   0.00000   0.00036
  47        2S          0.00000   0.00002  -0.00017   0.00005  -0.00015
  48        2PX         0.00000   0.00000  -0.00000   0.00002   0.00006
  49        2PY         0.00002   0.00002  -0.00001  -0.00001   0.00003
  50        2PZ         0.00001   0.00001  -0.00001  -0.00001   0.00002
  51        3S         -0.00017  -0.00027   0.00091  -0.00016   0.00056
  52        3PX        -0.00009   0.00008   0.00006  -0.00006  -0.00025
  53        3PY        -0.00001   0.00004  -0.00018   0.00006  -0.00007
  54        3PZ         0.00014   0.00012   0.00002   0.00006  -0.00011
  55        4XX        -0.00001   0.00000  -0.00009   0.00004  -0.00011
  56        4YY        -0.00000   0.00001  -0.00008   0.00003  -0.00017
  57        4ZZ        -0.00002  -0.00000  -0.00012   0.00003  -0.00015
  58        4XY        -0.00003   0.00003  -0.00002  -0.00001   0.00003
  59        4XZ         0.00002  -0.00002   0.00002   0.00001   0.00001
  60        4YZ        -0.00001  -0.00000  -0.00001  -0.00001   0.00002
  61 7   H  1S         -0.00003  -0.00001   0.00001   0.00002  -0.00003
  62        2S         -0.00018  -0.00013  -0.00029  -0.00010   0.00013
  63        3PX        -0.00002   0.00002  -0.00002   0.00001   0.00002
  64        3PY         0.00002   0.00002  -0.00002  -0.00000   0.00003
  65        3PZ         0.00004   0.00003   0.00005   0.00001  -0.00002
  66 8   P  1S         -0.00026   0.99625  -0.00000  -0.00000   0.00001
  67        2S         -0.00000   0.01418  -0.00004  -0.00003  -0.00003
  68        2PX         0.00001  -0.00000  -0.00001   0.00000   0.00005
  69        2PY         0.00001   0.00001   0.00001   0.00001  -0.00004
  70        2PZ        -0.00000   0.00001  -0.00002   0.00001   0.00000
  71        3S          0.00010  -0.02723  -0.00013  -0.00028   0.00017
  72        3PX        -0.00008  -0.00012   0.00003  -0.00006  -0.00006
  73        3PY        -0.00006  -0.00007  -0.00001  -0.00010   0.00014
  74        3PZ         0.00002  -0.00001   0.00015  -0.00005   0.00005
  75        4S         -0.00011   0.00280   0.00038   0.00119  -0.00262
  76        4PX        -0.00012   0.00021   0.00018   0.00061   0.00114
  77        4PY         0.00010  -0.00002   0.00006  -0.00035  -0.00145
  78        4PZ         0.00003  -0.00017  -0.00006   0.00010  -0.00104
  79        5XX        -0.00009   0.00943   0.00002   0.00002   0.00017
  80        5YY        -0.00002   0.00946  -0.00007   0.00004   0.00010
  81        5ZZ        -0.00002   0.00948  -0.00005   0.00008  -0.00011
  82        5XY        -0.00002  -0.00003  -0.00005  -0.00000  -0.00018
  83        5XZ        -0.00001  -0.00002   0.00006  -0.00003   0.00007
  84        5YZ         0.00000   0.00001  -0.00001   0.00004  -0.00003
  85 9   P  1S          0.99625   0.00026   0.00001   0.00001   0.00000
  86        2S          0.01417  -0.00001   0.00001  -0.00001   0.00003
  87        2PX        -0.00002  -0.00001   0.00003   0.00002   0.00000
  88        2PY        -0.00003   0.00001   0.00004   0.00003  -0.00000
  89        2PZ         0.00000   0.00000  -0.00005   0.00006   0.00000
  90        3S         -0.02722   0.00003   0.00033   0.00037   0.00013
  91        3PX         0.00011   0.00009  -0.00019  -0.00021  -0.00002
  92        3PY        -0.00007  -0.00007  -0.00002  -0.00005   0.00002
  93        3PZ        -0.00003   0.00000   0.00010  -0.00017  -0.00002
  94        4S          0.00287   0.00019  -0.00354  -0.00328  -0.00052
  95        4PX        -0.00025  -0.00008   0.00194   0.00066   0.00040
  96        4PY        -0.00005   0.00002   0.00102   0.00066   0.00023
  97        4PZ         0.00003   0.00005  -0.00084   0.00130  -0.00005
  98        5XX         0.00941  -0.00011  -0.00004  -0.00009   0.00000
  99        5YY         0.00946  -0.00002   0.00003   0.00005   0.00001
 100        5ZZ         0.00947  -0.00002   0.00013   0.00017   0.00000
 101        5XY         0.00003   0.00002   0.00000  -0.00003  -0.00000
 102        5XZ        -0.00000   0.00000  -0.00005   0.00009   0.00000
 103        5YZ        -0.00001  -0.00000  -0.00023   0.00022   0.00000
 104 10  O  1S          0.00001  -0.00001  -0.00004  -0.00004   0.00025
 105        2S          0.00004  -0.00008  -0.00003   0.00013  -0.00019
 106        2PX         0.00001   0.00001   0.00000   0.00002   0.00001
 107        2PY         0.00000  -0.00001  -0.00001  -0.00001  -0.00004
 108        2PZ        -0.00001   0.00009  -0.00000  -0.00003  -0.00003
 109        3S         -0.00018   0.00088   0.00007  -0.00063   0.00122
 110        3PX        -0.00006  -0.00009   0.00004  -0.00017   0.00002
 111        3PY        -0.00005  -0.00001   0.00005  -0.00003   0.00045
 112        3PZ         0.00006  -0.00037   0.00001   0.00020  -0.00016
 113        4XX         0.00004  -0.00004   0.00002   0.00010  -0.00015
 114        4YY         0.00007  -0.00003  -0.00001   0.00011  -0.00013
 115        4ZZ         0.00004  -0.00026  -0.00001   0.00008  -0.00012
 116        4XY         0.00001   0.00002   0.00001   0.00000   0.00002
 117        4XZ         0.00001   0.00005   0.00001   0.00002  -0.00003
 118        4YZ         0.00001   0.00009   0.00000  -0.00000   0.00000
 119 11  H  1S         -0.00003  -0.00010   0.00001   0.00001   0.00003
 120        2S          0.00000  -0.00019   0.00002  -0.00012   0.00028
 121        3PX        -0.00001  -0.00000   0.00000  -0.00001   0.00001
 122        3PY        -0.00002  -0.00000  -0.00000  -0.00002   0.00004
 123        3PZ        -0.00001  -0.00000   0.00000  -0.00000  -0.00003
 124 12  O  1S         -0.00000  -0.00001   0.00001   0.00004   0.99269
 125        2S          0.00000  -0.00008  -0.00001  -0.00003   0.02583
 126        2PX        -0.00001  -0.00006  -0.00000   0.00000   0.00023
 127        2PY        -0.00000   0.00006   0.00000   0.00000  -0.00036
 128        2PZ         0.00000   0.00001  -0.00000  -0.00000  -0.00074
 129        3S         -0.00003   0.00090   0.00004   0.00014   0.01258
 130        3PX         0.00003   0.00023  -0.00001  -0.00000   0.00044
 131        3PY         0.00000  -0.00026  -0.00000  -0.00000  -0.00017
 132        3PZ        -0.00001  -0.00010   0.00001   0.00004   0.00046
 133        4XX         0.00001  -0.00021  -0.00001  -0.00002  -0.00824
 134        4YY        -0.00000  -0.00013  -0.00002  -0.00003  -0.00824
 135        4ZZ        -0.00001   0.00002  -0.00002  -0.00004  -0.00824
 136        4XY        -0.00001   0.00013   0.00000   0.00000   0.00003
 137        4XZ        -0.00000  -0.00001   0.00000  -0.00000  -0.00000
 138        4YZ         0.00000   0.00003  -0.00000   0.00000  -0.00000
 139 13  H  1S         -0.00000  -0.00010   0.00001   0.00001   0.00043
 140        2S         -0.00000  -0.00024  -0.00002   0.00005  -0.00093
 141        3PX        -0.00000   0.00000  -0.00000   0.00000  -0.00005
 142        3PY         0.00000  -0.00000   0.00000   0.00000   0.00003
 143        3PZ         0.00000  -0.00001   0.00000   0.00001  -0.00005
 144 14  O  1S         -0.00000   0.00000  -0.00014   0.99266  -0.00007
 145        2S         -0.00003   0.00003  -0.00021   0.02567  -0.00006
 146        2PX        -0.00000  -0.00000   0.00002  -0.00058  -0.00000
 147        2PY        -0.00006   0.00001   0.00001   0.00012   0.00001
 148        2PZ        -0.00008   0.00001  -0.00003   0.00050  -0.00001
 149        3S          0.00064  -0.00009   0.00114   0.01337   0.00034
 150        3PX        -0.00001   0.00004  -0.00012  -0.00014  -0.00003
 151        3PY         0.00018  -0.00007   0.00010   0.00021  -0.00004
 152        3PZ         0.00028  -0.00007   0.00045   0.00029   0.00006
 153        4XX         0.00003  -0.00000  -0.00009  -0.00831  -0.00004
 154        4YY        -0.00009   0.00002  -0.00011  -0.00834  -0.00004
 155        4ZZ        -0.00017   0.00001  -0.00009  -0.00837  -0.00003
 156        4XY        -0.00001   0.00001  -0.00002   0.00000   0.00000
 157        4XZ        -0.00003   0.00001  -0.00001  -0.00001   0.00000
 158        4YZ        -0.00014  -0.00001   0.00004  -0.00004  -0.00001
 159 15  H  1S         -0.00004   0.00000  -0.00010   0.00036  -0.00001
 160        2S         -0.00018  -0.00018   0.00043  -0.00161  -0.00015
 161        3PX         0.00000   0.00001   0.00001  -0.00002  -0.00001
 162        3PY         0.00000   0.00000   0.00001  -0.00006  -0.00001
 163        3PZ        -0.00000  -0.00001   0.00005  -0.00004  -0.00001
 164 16  O  1S         -0.00000   0.00002   0.99268   0.00008  -0.00003
 165        2S         -0.00003   0.00009   0.02575  -0.00009  -0.00007
 166        2PX        -0.00004  -0.00002   0.00089   0.00000   0.00000
 167        2PY        -0.00004   0.00001   0.00014   0.00003   0.00000
 168        2PZ         0.00005  -0.00001  -0.00015   0.00002   0.00001
 169        3S          0.00065  -0.00035   0.01285   0.00056   0.00035
 170        3PX         0.00026   0.00014  -0.00043  -0.00002  -0.00002
 171        3PY         0.00017  -0.00007   0.00033  -0.00004   0.00001
 172        3PZ        -0.00020   0.00009  -0.00054  -0.00030  -0.00008
 173        4XX         0.00005   0.00007  -0.00828  -0.00003  -0.00004
 174        4YY        -0.00011   0.00007  -0.00827  -0.00005  -0.00005
 175        4ZZ        -0.00017   0.00007  -0.00827  -0.00003  -0.00003
 176        4XY        -0.00002   0.00001  -0.00001  -0.00001  -0.00001
 177        4XZ         0.00004  -0.00000   0.00002   0.00000   0.00000
 178        4YZ         0.00013   0.00001   0.00003  -0.00003   0.00000
 179 17  H  1S         -0.00012  -0.00003   0.00042  -0.00004  -0.00001
 180        2S         -0.00022  -0.00003  -0.00097   0.00007   0.00001
 181        3PX         0.00002   0.00002   0.00005  -0.00000  -0.00000
 182        3PY         0.00000  -0.00000  -0.00005   0.00001   0.00000
 183        3PZ        -0.00000   0.00000   0.00007  -0.00000   0.00000
 184 18  O  1S         -0.00000  -0.00000  -0.00002  -0.00003  -0.00000
 185        2S         -0.00010  -0.00001   0.00010  -0.00013   0.00004
 186        2PX         0.00016   0.00000   0.00001  -0.00001   0.00001
 187        2PY         0.00012  -0.00000  -0.00002  -0.00000  -0.00000
 188        2PZ        -0.00000   0.00000  -0.00003   0.00005  -0.00000
 189        3S          0.00074   0.00002  -0.00048   0.00076  -0.00021
 190        3PX        -0.00034  -0.00001  -0.00018  -0.00021  -0.00002
 191        3PY        -0.00028  -0.00001  -0.00005  -0.00019   0.00001
 192        3PZ         0.00001  -0.00001   0.00020  -0.00027   0.00001
 193        4XX        -0.00015  -0.00000   0.00013  -0.00004   0.00003
 194        4YY        -0.00004  -0.00000   0.00011  -0.00005   0.00003
 195        4ZZ         0.00002  -0.00001   0.00008  -0.00010   0.00003
 196        4XY        -0.00012   0.00001   0.00002   0.00001  -0.00000
 197        4XZ         0.00001   0.00000  -0.00003   0.00003  -0.00000
 198        4YZ         0.00000   0.00000   0.00001  -0.00002  -0.00000
 199 19  O  1S         -0.00000   0.00001  -0.00001  -0.00001  -0.00003
 200        2S          0.00000  -0.00004  -0.00005   0.00004   0.00009
 201        2PX         0.00000   0.00001  -0.00002  -0.00001   0.00001
 202        2PY         0.00001  -0.00012   0.00000   0.00002   0.00000
 203        2PZ         0.00000  -0.00013  -0.00004   0.00003   0.00002
 204        3S          0.00005   0.00044   0.00018  -0.00024  -0.00043
 205        3PX        -0.00001  -0.00004   0.00005   0.00022  -0.00013
 206        3PY        -0.00004   0.00024   0.00005  -0.00015   0.00011
 207        3PZ        -0.00002   0.00028   0.00018  -0.00027   0.00000
 208        4XX        -0.00002   0.00007  -0.00004   0.00007   0.00007
 209        4YY        -0.00001  -0.00008  -0.00004   0.00001   0.00009
 210        4ZZ        -0.00001  -0.00007  -0.00003  -0.00001   0.00008
 211        4XY        -0.00001   0.00001  -0.00000  -0.00002   0.00001
 212        4XZ        -0.00001   0.00001   0.00002  -0.00001  -0.00003
 213        4YZ        -0.00001  -0.00014   0.00004  -0.00003   0.00002
                           6         7         8         9        10
                           O         O         O         O         O
     Eigenvalues --   -19.00940 -19.00853 -18.96949 -18.95554 -10.10422
   1 1   C  1S         -0.00004  -0.00002   0.00001  -0.00001   0.99322
   2        2S         -0.00023   0.00012  -0.00001  -0.00007   0.04993
   3        2PX         0.00005   0.00000  -0.00003   0.00000  -0.00003
   4        2PY        -0.00005   0.00018   0.00001  -0.00006   0.00043
   5        2PZ         0.00006   0.00029   0.00003  -0.00003   0.00061
   6        3S          0.00180  -0.00090  -0.00022   0.00016  -0.01980
   7        3PX        -0.00101  -0.00005  -0.00011   0.00002   0.00013
   8        3PY         0.00036  -0.00069  -0.00053   0.00027  -0.00127
   9        3PZ         0.00021  -0.00084  -0.00019   0.00003   0.00027
  10        4XX        -0.00003   0.00002   0.00005   0.00005  -0.00874
  11        4YY        -0.00000   0.00005   0.00004  -0.00000  -0.00862
  12        4ZZ         0.00002   0.00015   0.00001  -0.00000  -0.00839
  13        4XY         0.00004  -0.00000   0.00005  -0.00000   0.00002
  14        4XZ         0.00001  -0.00000   0.00000  -0.00002   0.00001
  15        4YZ         0.00001   0.00011   0.00002  -0.00000   0.00011
  16 2   C  1S          0.00001   0.00001  -0.00002  -0.00001   0.00186
  17        2S          0.00008   0.00010  -0.00008  -0.00004  -0.00018
  18        2PX         0.00002   0.00001   0.00005  -0.00002  -0.00001
  19        2PY         0.00002   0.00003   0.00004   0.00003  -0.00008
  20        2PZ        -0.00004   0.00009   0.00001   0.00001  -0.00006
  21        3S         -0.00063   0.00018   0.00044  -0.00001   0.00545
  22        3PX         0.00006  -0.00006  -0.00040   0.00024   0.00007
  23        3PY         0.00016  -0.00030  -0.00025  -0.00015  -0.00103
  24        3PZ        -0.00025  -0.00038   0.00027  -0.00011   0.00188
  25        4XX         0.00002   0.00002  -0.00006   0.00001  -0.00010
  26        4YY         0.00000   0.00001  -0.00004  -0.00000  -0.00030
  27        4ZZ        -0.00001  -0.00008  -0.00003  -0.00003  -0.00025
  28        4XY        -0.00002   0.00000  -0.00001  -0.00000   0.00000
  29        4XZ         0.00002   0.00000  -0.00000   0.00001  -0.00001
  30        4YZ         0.00002   0.00000  -0.00002  -0.00000   0.00017
  31 3   H  1S          0.00006  -0.00005  -0.00007  -0.00005  -0.00003
  32        2S         -0.00013  -0.00030   0.00027   0.00003  -0.00028
  33        3PX        -0.00000   0.00000   0.00001  -0.00001   0.00000
  34        3PY        -0.00000   0.00002  -0.00000   0.00001   0.00002
  35        3PZ        -0.00000  -0.00001   0.00002   0.00001  -0.00000
  36 4   H  1S          0.00000   0.00007  -0.00004   0.00003  -0.00022
  37        2S          0.00014   0.00008  -0.00023   0.00012  -0.00047
  38        3PX        -0.00000  -0.00000   0.00001   0.00001  -0.00001
  39        3PY        -0.00001   0.00000   0.00003   0.00000  -0.00004
  40        3PZ         0.00000   0.00005  -0.00001   0.00000   0.00001
  41 5   H  1S          0.00002   0.00006   0.00002   0.00001  -0.00022
  42        2S          0.00004   0.00015   0.00025   0.00005  -0.00045
  43        3PX        -0.00000   0.00000  -0.00002   0.00002   0.00001
  44        3PY        -0.00001  -0.00001  -0.00002  -0.00001  -0.00005
  45        3PZ         0.00001   0.00006  -0.00001   0.00002   0.00002
  46 6   O  1S          0.00048   0.99275   0.00002  -0.00005  -0.00014
  47        2S          0.00007   0.02589   0.00003  -0.00011  -0.00035
  48        2PX         0.00000   0.00013  -0.00002  -0.00004  -0.00001
  49        2PY        -0.00005  -0.00098  -0.00002   0.00002   0.00007
  50        2PZ        -0.00003  -0.00006  -0.00001   0.00001   0.00012
  51        3S         -0.00027   0.01204   0.00004   0.00038   0.00352
  52        3PX        -0.00005  -0.00000   0.00010   0.00014   0.00003
  53        3PY         0.00008  -0.00024   0.00005  -0.00009  -0.00010
  54        3PZ         0.00040  -0.00041  -0.00004  -0.00004  -0.00062
  55        4XX         0.00007  -0.00807   0.00003  -0.00007  -0.00010
  56        4YY         0.00003  -0.00803   0.00003  -0.00010  -0.00032
  57        4ZZ        -0.00002  -0.00809   0.00005  -0.00011  -0.00074
  58        4XY         0.00000  -0.00001   0.00000  -0.00001   0.00002
  59        4XZ        -0.00002   0.00001  -0.00000  -0.00001   0.00001
  60        4YZ        -0.00003  -0.00010  -0.00001   0.00002  -0.00031
  61 7   H  1S          0.00011   0.00028   0.00002  -0.00006   0.00008
  62        2S         -0.00041  -0.00128  -0.00010   0.00006  -0.00025
  63        3PX         0.00003   0.00002  -0.00001  -0.00002  -0.00002
  64        3PY        -0.00004  -0.00010  -0.00000   0.00002  -0.00003
  65        3PZ         0.00003   0.00017   0.00002  -0.00001  -0.00012
  66 8   P  1S          0.00001   0.00000   0.00002   0.00000   0.00001
  67        2S         -0.00000   0.00004  -0.00005   0.00005  -0.00007
  68        2PX        -0.00000  -0.00000  -0.00000  -0.00001  -0.00002
  69        2PY         0.00002  -0.00000  -0.00001  -0.00000  -0.00003
  70        2PZ        -0.00006  -0.00000   0.00001   0.00000  -0.00000
  71        3S          0.00032   0.00026   0.00083   0.00022   0.00003
  72        3PX         0.00009   0.00010   0.00007   0.00010   0.00039
  73        3PY         0.00002   0.00003  -0.00004   0.00006   0.00038
  74        3PZ         0.00016   0.00006  -0.00018  -0.00000   0.00004
  75        4S         -0.00349  -0.00093  -0.00332  -0.00109   0.00401
  76        4PX        -0.00091  -0.00008  -0.00058  -0.00075   0.00074
  77        4PY        -0.00040  -0.00061   0.00118   0.00039   0.00205
  78        4PZ        -0.00194  -0.00019   0.00142  -0.00022   0.00048
  79        5XX        -0.00003  -0.00004  -0.00025   0.00006   0.00003
  80        5YY        -0.00008   0.00001  -0.00012   0.00005   0.00006
  81        5ZZ         0.00025  -0.00000  -0.00017   0.00001  -0.00006
  82        5XY        -0.00000   0.00003   0.00004   0.00000   0.00001
  83        5XZ        -0.00006   0.00000  -0.00000   0.00002  -0.00004
  84        5YZ        -0.00017  -0.00001   0.00014   0.00000   0.00007
  85 9   P  1S         -0.00000   0.00000  -0.00000   0.00001   0.00000
  86        2S         -0.00007   0.00002  -0.00004  -0.00013  -0.00009
  87        2PX         0.00000   0.00000  -0.00001   0.00001   0.00002
  88        2PY         0.00000  -0.00000   0.00000   0.00000  -0.00003
  89        2PZ         0.00000   0.00001   0.00001  -0.00000  -0.00000
  90        3S         -0.00023   0.00015  -0.00030   0.00053  -0.00005
  91        3PX         0.00002  -0.00009   0.00008   0.00010  -0.00035
  92        3PY        -0.00003   0.00005  -0.00004   0.00011   0.00040
  93        3PZ        -0.00003  -0.00001  -0.00008   0.00002   0.00006
  94        4S          0.00151  -0.00066   0.00089  -0.00161   0.00427
  95        4PX        -0.00085   0.00013  -0.00052  -0.00236  -0.00163
  96        4PY        -0.00018  -0.00032  -0.00032  -0.00178   0.00090
  97        4PZ         0.00014  -0.00014   0.00008  -0.00002   0.00056
  98        5XX        -0.00003  -0.00003   0.00000  -0.00019  -0.00001
  99        5YY        -0.00004   0.00003   0.00002  -0.00020   0.00006
 100        5ZZ        -0.00005  -0.00002   0.00005  -0.00027  -0.00008
 101        5XY         0.00001  -0.00002   0.00002   0.00004  -0.00005
 102        5XZ         0.00000   0.00001   0.00002   0.00000  -0.00001
 103        5YZ         0.00000   0.00000   0.00004   0.00001   0.00006
 104 10  O  1S          0.99267  -0.00049   0.00005  -0.00004   0.00005
 105        2S          0.02580  -0.00010  -0.00005  -0.00011   0.00019
 106        2PX        -0.00034  -0.00001  -0.00003  -0.00002  -0.00006
 107        2PY        -0.00051   0.00001   0.00003   0.00001  -0.00001
 108        2PZ        -0.00054  -0.00002   0.00002   0.00002   0.00003
 109        3S          0.01285   0.00045   0.00023   0.00057  -0.00120
 110        3PX         0.00034   0.00006   0.00017   0.00014   0.00015
 111        3PY         0.00047   0.00010  -0.00011   0.00001  -0.00012
 112        3PZ        -0.00038   0.00004  -0.00032  -0.00017   0.00004
 113        4XX        -0.00828  -0.00003   0.00000  -0.00009   0.00014
 114        4YY        -0.00830  -0.00005  -0.00004  -0.00008   0.00008
 115        4ZZ        -0.00831  -0.00007   0.00004  -0.00006   0.00015
 116        4XY        -0.00003  -0.00001  -0.00000  -0.00000   0.00008
 117        4XZ         0.00000   0.00001  -0.00002  -0.00002  -0.00002
 118        4YZ         0.00002  -0.00001  -0.00002   0.00001   0.00001
 119 11  H  1S          0.00044   0.00001  -0.00003  -0.00002   0.00005
 120        2S         -0.00090  -0.00005   0.00025   0.00011   0.00023
 121        3PX        -0.00001  -0.00000   0.00000   0.00001   0.00000
 122        3PY        -0.00002   0.00001   0.00001   0.00001   0.00000
 123        3PZ         0.00005  -0.00000  -0.00003   0.00000  -0.00002
 124 12  O  1S         -0.00033  -0.00045   0.00005   0.00002   0.00007
 125        2S         -0.00012  -0.00019  -0.00003   0.00005   0.00030
 126        2PX         0.00000  -0.00004   0.00000  -0.00001   0.00002
 127        2PY        -0.00005  -0.00001   0.00002  -0.00001   0.00001
 128        2PZ        -0.00001  -0.00001   0.00002   0.00000   0.00003
 129        3S          0.00080   0.00083   0.00019  -0.00024  -0.00158
 130        3PX         0.00017   0.00027   0.00014  -0.00000  -0.00049
 131        3PY         0.00010  -0.00001  -0.00024   0.00004   0.00004
 132        3PZ         0.00019   0.00017  -0.00016  -0.00004  -0.00032
 133        4XX        -0.00005  -0.00011   0.00003   0.00003   0.00016
 134        4YY        -0.00010  -0.00014   0.00001   0.00003   0.00021
 135        4ZZ        -0.00013  -0.00017   0.00000   0.00005   0.00015
 136        4XY         0.00002  -0.00000  -0.00001   0.00000   0.00004
 137        4XZ         0.00001   0.00001  -0.00000   0.00000   0.00001
 138        4YZ         0.00005  -0.00000  -0.00003   0.00000   0.00003
 139 13  H  1S          0.00006   0.00003  -0.00006   0.00000   0.00003
 140        2S         -0.00025   0.00009   0.00025  -0.00012  -0.00042
 141        3PX        -0.00001   0.00000   0.00003  -0.00001  -0.00004
 142        3PY         0.00002   0.00000  -0.00002   0.00000   0.00001
 143        3PZ         0.00002   0.00004  -0.00002  -0.00001  -0.00004
 144 14  O  1S          0.00010   0.00001  -0.00000   0.00001   0.00002
 145        2S          0.00013   0.00002  -0.00010   0.00005   0.00010
 146        2PX        -0.00000  -0.00000   0.00002  -0.00002   0.00000
 147        2PY         0.00000   0.00000   0.00003  -0.00002  -0.00000
 148        2PZ         0.00001   0.00001   0.00004   0.00006  -0.00000
 149        3S         -0.00066  -0.00007   0.00055  -0.00022  -0.00061
 150        3PX         0.00006  -0.00000  -0.00037   0.00025   0.00006
 151        3PY        -0.00005   0.00001  -0.00021   0.00018  -0.00020
 152        3PZ        -0.00014  -0.00003  -0.00023  -0.00023  -0.00020
 153        4XX         0.00009   0.00002   0.00002  -0.00001   0.00009
 154        4YY         0.00009   0.00003  -0.00006   0.00005   0.00002
 155        4ZZ         0.00007   0.00002  -0.00009   0.00001  -0.00001
 156        4XY         0.00000   0.00001   0.00003  -0.00003  -0.00002
 157        4XZ         0.00000   0.00001   0.00001   0.00002   0.00001
 158        4YZ         0.00001  -0.00001  -0.00002   0.00001   0.00002
 159 15  H  1S          0.00002   0.00001  -0.00015   0.00013  -0.00000
 160        2S         -0.00004  -0.00005  -0.00106  -0.00030  -0.00025
 161        3PX         0.00001  -0.00001   0.00005   0.00004  -0.00002
 162        3PY         0.00000  -0.00000  -0.00004  -0.00002  -0.00002
 163        3PZ         0.00001   0.00000  -0.00002  -0.00002  -0.00003
 164 16  O  1S          0.00005  -0.00005   0.00001   0.00008   0.00006
 165        2S          0.00007  -0.00011   0.00007   0.00013   0.00022
 166        2PX         0.00002   0.00002   0.00002  -0.00002   0.00001
 167        2PY        -0.00001  -0.00003   0.00001  -0.00004  -0.00002
 168        2PZ        -0.00001  -0.00002  -0.00000  -0.00004  -0.00000
 169        3S         -0.00048   0.00046  -0.00039  -0.00064  -0.00137
 170        3PX        -0.00007  -0.00014  -0.00008   0.00022   0.00005
 171        3PY        -0.00001   0.00020  -0.00004   0.00024  -0.00013
 172        3PZ         0.00013   0.00002   0.00004   0.00015   0.00019
 173        4XX         0.00007  -0.00009   0.00001   0.00011   0.00017
 174        4YY         0.00004  -0.00006   0.00003   0.00014   0.00018
 175        4ZZ         0.00003  -0.00009   0.00003   0.00010   0.00013
 176        4XY        -0.00000  -0.00001   0.00002  -0.00001  -0.00010
 177        4XZ        -0.00001  -0.00001  -0.00001  -0.00001  -0.00002
 178        4YZ        -0.00001   0.00000  -0.00001  -0.00002  -0.00003
 179 17  H  1S          0.00003   0.00001   0.00007  -0.00004   0.00005
 180        2S         -0.00000   0.00006  -0.00001   0.00024  -0.00006
 181        3PX         0.00001  -0.00002  -0.00002   0.00003   0.00002
 182        3PY        -0.00001  -0.00000   0.00001   0.00001  -0.00000
 183        3PZ        -0.00001  -0.00002  -0.00001  -0.00003   0.00000
 184 18  O  1S          0.00000  -0.00001   0.00005   0.99271   0.00004
 185        2S         -0.00002  -0.00013  -0.00005   0.02562   0.00020
 186        2PX        -0.00002   0.00003   0.00000  -0.00069  -0.00001
 187        2PY         0.00001  -0.00001   0.00000  -0.00050   0.00002
 188        2PZ         0.00001  -0.00001   0.00000   0.00001   0.00001
 189        3S          0.00012   0.00062   0.00025   0.01285  -0.00105
 190        3PX         0.00008  -0.00019   0.00001  -0.00042   0.00039
 191        3PY        -0.00002   0.00001   0.00001  -0.00020  -0.00007
 192        3PZ        -0.00003   0.00005  -0.00002   0.00006  -0.00011
 193        4XX        -0.00002  -0.00008  -0.00005  -0.00816   0.00008
 194        4YY        -0.00002  -0.00011  -0.00005  -0.00820   0.00016
 195        4ZZ        -0.00003  -0.00011  -0.00005  -0.00820   0.00006
 196        4XY        -0.00000   0.00000  -0.00000   0.00003  -0.00002
 197        4XZ         0.00000  -0.00001   0.00000  -0.00001   0.00000
 198        4YZ         0.00000   0.00000   0.00001  -0.00000   0.00003
 199 19  O  1S         -0.00005  -0.00000   0.99269  -0.00009   0.00000
 200        2S         -0.00001   0.00003   0.02555  -0.00011   0.00003
 201        2PX        -0.00004  -0.00001  -0.00006  -0.00001   0.00002
 202        2PY         0.00003  -0.00001   0.00056   0.00001   0.00002
 203        2PZ        -0.00003   0.00001   0.00056  -0.00001  -0.00001
 204        3S          0.00008  -0.00017   0.01306   0.00060  -0.00015
 205        3PX         0.00016   0.00002   0.00029   0.00006  -0.00018
 206        3PY        -0.00001   0.00006   0.00033  -0.00001  -0.00032
 207        3PZ         0.00036  -0.00004   0.00026   0.00011  -0.00004
 208        4XX         0.00002   0.00003  -0.00822  -0.00009   0.00002
 209        4YY         0.00000   0.00004  -0.00829  -0.00008  -0.00005
 210        4ZZ         0.00006   0.00003  -0.00829  -0.00006  -0.00003
 211        4XY         0.00000  -0.00001  -0.00000   0.00001   0.00001
 212        4XZ         0.00001  -0.00000  -0.00001  -0.00001  -0.00004
 213        4YZ         0.00004  -0.00000   0.00001  -0.00001  -0.00001
                          11        12        13        14        15
                           O         O         O         O         O
     Eigenvalues --   -10.04990  -6.50705  -6.50165  -4.67139  -4.66984
   1 1   C  1S         -0.00207   0.00012   0.00013   0.00002   0.00008
   2        2S         -0.00015   0.00083   0.00084   0.00006   0.00098
   3        2PX        -0.00001  -0.00003   0.00005  -0.00004   0.00030
   4        2PY        -0.00010  -0.00001  -0.00011  -0.00016   0.00036
   5        2PZ         0.00004  -0.00009  -0.00008   0.00026  -0.00007
   6        3S          0.00355  -0.00430  -0.00460  -0.00096  -0.00474
   7        3PX        -0.00006  -0.00185   0.00215   0.00005  -0.00360
   8        3PY         0.00198   0.00025   0.00082   0.00083  -0.00386
   9        3PZ        -0.00158   0.00011   0.00003  -0.00386  -0.00113
  10        4XX        -0.00008   0.00009   0.00015   0.00006  -0.00024
  11        4YY        -0.00029   0.00017   0.00025  -0.00000   0.00025
  12        4ZZ        -0.00022   0.00014   0.00018  -0.00008  -0.00009
  13        4XY         0.00001   0.00011  -0.00011   0.00006   0.00014
  14        4XZ         0.00000  -0.00000   0.00001  -0.00037  -0.00005
  15        4YZ         0.00008  -0.00004  -0.00002  -0.00007   0.00001
  16 2   C  1S          0.99297   0.00000  -0.00001  -0.00006   0.00000
  17        2S          0.05008  -0.00009  -0.00015  -0.00011  -0.00017
  18        2PX         0.00002   0.00001   0.00004  -0.00009   0.00007
  19        2PY        -0.00021  -0.00007  -0.00005   0.00019  -0.00020
  20        2PZ        -0.00001   0.00008   0.00006  -0.00009   0.00013
  21        3S         -0.01746   0.00062   0.00070  -0.00044   0.00215
  22        3PX        -0.00020   0.00078  -0.00111   0.00033   0.00075
  23        3PY         0.00163  -0.00118  -0.00130   0.00099  -0.00080
  24        3PZ        -0.00111   0.00061   0.00053  -0.00042   0.00189
  25        4XX        -0.00881   0.00003  -0.00000  -0.00015   0.00011
  26        4YY        -0.00900   0.00015   0.00014  -0.00032   0.00005
  27        4ZZ        -0.00890   0.00006   0.00001  -0.00008   0.00022
  28        4XY        -0.00001  -0.00010   0.00008   0.00009  -0.00019
  29        4XZ        -0.00001   0.00009  -0.00011   0.00001   0.00014
  30        4YZ         0.00018  -0.00007  -0.00007   0.00002  -0.00013
  31 3   H  1S         -0.00003  -0.00014  -0.00015   0.00011   0.00002
  32        2S          0.00225   0.00070   0.00061  -0.00101   0.00069
  33        3PX         0.00000   0.00002   0.00001  -0.00012  -0.00001
  34        3PY        -0.00015  -0.00002  -0.00002   0.00009   0.00002
  35        3PZ        -0.00022   0.00006   0.00006  -0.00010  -0.00001
  36 4   H  1S         -0.00011   0.00006  -0.00018   0.00000  -0.00004
  37        2S          0.00231   0.00047   0.00054   0.00010   0.00006
  38        3PX        -0.00019  -0.00001   0.00003   0.00004  -0.00007
  39        3PY         0.00008   0.00003  -0.00007  -0.00007   0.00001
  40        3PZ         0.00009  -0.00005   0.00004  -0.00002  -0.00006
  41 5   H  1S         -0.00007  -0.00011   0.00009  -0.00003  -0.00025
  42        2S          0.00245   0.00067   0.00063  -0.00100   0.00095
  43        3PX         0.00019  -0.00002  -0.00001  -0.00002   0.00001
  44        3PY         0.00007  -0.00010   0.00003   0.00009  -0.00020
  45        3PZ         0.00008   0.00005  -0.00005   0.00001   0.00006
  46 6   O  1S         -0.00002  -0.00005  -0.00008  -0.00003  -0.00011
  47        2S         -0.00012  -0.00029  -0.00038  -0.00024  -0.00057
  48        2PX        -0.00000  -0.00010   0.00009   0.00004  -0.00008
  49        2PY        -0.00004   0.00000   0.00002   0.00000  -0.00009
  50        2PZ         0.00009   0.00002  -0.00000  -0.00001   0.00004
  51        3S          0.00009   0.00155   0.00205   0.00184   0.00362
  52        3PX        -0.00002   0.00082  -0.00080  -0.00002   0.00099
  53        3PY         0.00018  -0.00030  -0.00057  -0.00051   0.00024
  54        3PZ        -0.00038  -0.00086  -0.00068  -0.00093  -0.00179
  55        4XX        -0.00017  -0.00011  -0.00019  -0.00007  -0.00018
  56        4YY        -0.00004  -0.00015  -0.00017   0.00001  -0.00045
  57        4ZZ         0.00006  -0.00009  -0.00018  -0.00004  -0.00012
  58        4XY         0.00001  -0.00005   0.00004   0.00003  -0.00003
  59        4XZ        -0.00001  -0.00014   0.00014  -0.00001  -0.00024
  60        4YZ        -0.00003   0.00009   0.00008   0.00015   0.00009
  61 7   H  1S          0.00011  -0.00003  -0.00007   0.00001   0.00017
  62        2S          0.00027   0.00087   0.00046   0.00112   0.00072
  63        3PX        -0.00000   0.00004  -0.00003   0.00010  -0.00001
  64        3PY        -0.00001  -0.00001  -0.00002  -0.00003   0.00008
  65        3PZ        -0.00004  -0.00014  -0.00009  -0.00017  -0.00011
  66 8   P  1S         -0.00000   0.00002  -0.27419   0.00000  -0.00000
  67        2S         -0.00006  -0.00024   1.02392   0.00000  -0.00009
  68        2PX         0.00001  -0.00004  -0.00365   0.00002   0.00009
  69        2PY         0.00001  -0.00001  -0.00100  -0.00007  -0.00085
  70        2PZ         0.00001   0.00000   0.00115   0.00081   0.00024
  71        3S         -0.00018  -0.00073   0.07545  -0.00001  -0.00008
  72        3PX        -0.00007   0.00019   0.00014   0.00014  -0.00052
  73        3PY        -0.00023   0.00010   0.00025  -0.00001  -0.00060
  74        3PZ        -0.00010  -0.00000   0.00019   0.00011  -0.00005
  75        4S          0.00103   0.00240  -0.01195   0.00005  -0.00063
  76        4PX         0.00022   0.00200  -0.00194  -0.00007   0.00023
  77        4PY         0.00063  -0.00110  -0.00056  -0.00019  -0.00058
  78        4PZ        -0.00067   0.00024   0.00041   0.00160   0.00034
  79        5XX        -0.00011   0.00030  -0.01729   0.00001  -0.00035
  80        5YY        -0.00004  -0.00011  -0.01728  -0.00001  -0.00019
  81        5ZZ        -0.00008  -0.00001  -0.01702   0.00009  -0.00006
  82        5XY        -0.00001   0.00005  -0.00022  -0.00001  -0.00011
  83        5XZ         0.00001   0.00001   0.00002   0.00019  -0.00003
  84        5YZ         0.00001  -0.00003  -0.00002   0.00012   0.00003
  85 9   P  1S         -0.00000  -0.27419  -0.00004   0.00041  -0.00183
  86        2S         -0.00009   1.02396   0.00007  -0.00163   0.00713
  87        2PX        -0.00002  -0.00032   0.00004   0.01368   0.17953
  88        2PY        -0.00000  -0.00661  -0.00001  -0.28809   0.93388
  89        2PZ         0.00003  -0.00051  -0.00000   0.94878   0.28092
  90        3S         -0.00028   0.07557  -0.00054   0.00007  -0.00089
  91        3PX         0.00022  -0.00078  -0.00023   0.00028   0.00629
  92        3PY        -0.00011  -0.00053   0.00015  -0.00878   0.02928
  93        3PZ        -0.00018   0.00015   0.00000   0.02997   0.00906
  94        4S          0.00158  -0.01295   0.00109   0.00044  -0.00196
  95        4PX        -0.00074   0.00319  -0.00125  -0.00091   0.00106
  96        4PY         0.00047   0.00045  -0.00085   0.00226  -0.00422
  97        4PZ        -0.00079  -0.00010  -0.00016  -0.00529  -0.00095
  98        5XX        -0.00014  -0.01736   0.00040  -0.00058   0.00240
  99        5YY        -0.00004  -0.01730  -0.00006   0.00020  -0.00024
 100        5ZZ        -0.00005  -0.01706  -0.00002   0.00021  -0.00076
 101        5XY         0.00000   0.00024  -0.00004  -0.00034  -0.00017
 102        5XZ         0.00001   0.00006   0.00002  -0.00047  -0.00056
 103        5YZ         0.00002   0.00002   0.00000  -0.00271  -0.00085
 104 10  O  1S         -0.00002   0.00002  -0.00002   0.00001   0.00004
 105        2S         -0.00009   0.00011   0.00059   0.00007   0.00017
 106        2PX        -0.00002   0.00002  -0.00004  -0.00008   0.00006
 107        2PY         0.00000  -0.00002   0.00006   0.00001  -0.00000
 108        2PZ         0.00002  -0.00000  -0.00036   0.00004  -0.00003
 109        3S          0.00039  -0.00064  -0.00369  -0.00058  -0.00069
 110        3PX         0.00011  -0.00023   0.00053   0.00028  -0.00033
 111        3PY         0.00005   0.00010   0.00001  -0.00004  -0.00009
 112        3PZ        -0.00012   0.00013   0.00223  -0.00006   0.00020
 113        4XX        -0.00006   0.00007   0.00030   0.00002   0.00013
 114        4YY        -0.00008   0.00000   0.00015  -0.00004   0.00017
 115        4ZZ        -0.00005   0.00005   0.00063   0.00002   0.00011
 116        4XY         0.00000  -0.00002  -0.00018   0.00001  -0.00000
 117        4XZ        -0.00001   0.00002  -0.00014  -0.00001   0.00003
 118        4YZ        -0.00002  -0.00005  -0.00015  -0.00001   0.00000
 119 11  H  1S         -0.00001   0.00008   0.00057   0.00011  -0.00003
 120        2S          0.00019  -0.00022   0.00086  -0.00021  -0.00014
 121        3PX         0.00001   0.00000   0.00007  -0.00001  -0.00001
 122        3PY         0.00002   0.00001   0.00013   0.00003  -0.00005
 123        3PZ        -0.00000   0.00002  -0.00017   0.00004  -0.00001
 124 12  O  1S          0.00000  -0.00003   0.00002   0.00000  -0.00002
 125        2S          0.00003  -0.00012   0.00069  -0.00001  -0.00009
 126        2PX        -0.00002   0.00004   0.00022  -0.00005  -0.00000
 127        2PY         0.00000   0.00003  -0.00026   0.00001   0.00001
 128        2PZ         0.00002  -0.00002  -0.00004   0.00005  -0.00000
 129        3S         -0.00017   0.00070  -0.00424  -0.00003   0.00043
 130        3PX        -0.00011  -0.00009  -0.00133   0.00022   0.00013
 131        3PY        -0.00002  -0.00013   0.00169  -0.00004  -0.00009
 132        3PZ        -0.00012   0.00015   0.00062  -0.00023   0.00007
 133        4XX        -0.00001  -0.00008   0.00069   0.00001  -0.00004
 134        4YY        -0.00002  -0.00007   0.00053  -0.00001  -0.00004
 135        4ZZ         0.00002  -0.00008   0.00002  -0.00000  -0.00006
 136        4XY        -0.00001   0.00001  -0.00015  -0.00001  -0.00003
 137        4XZ         0.00001  -0.00000  -0.00007  -0.00003  -0.00001
 138        4YZ        -0.00002  -0.00000  -0.00007   0.00002  -0.00000
 139 13  H  1S         -0.00004   0.00000   0.00065  -0.00013  -0.00002
 140        2S         -0.00031   0.00023   0.00115   0.00045   0.00027
 141        3PX        -0.00005   0.00003   0.00019   0.00001   0.00002
 142        3PY         0.00001   0.00000  -0.00013  -0.00002  -0.00000
 143        3PZ        -0.00002   0.00001   0.00016   0.00002   0.00002
 144 14  O  1S          0.00007  -0.00009   0.00002   0.00024   0.00014
 145        2S          0.00030   0.00035   0.00006  -0.00068  -0.00160
 146        2PX        -0.00002   0.00006   0.00004  -0.00014  -0.00000
 147        2PY         0.00008   0.00020  -0.00009  -0.00032  -0.00035
 148        2PZ         0.00002   0.00030  -0.00001  -0.00037  -0.00069
 149        3S         -0.00133  -0.00237  -0.00067   0.00300   0.00745
 150        3PX         0.00000  -0.00009  -0.00010   0.00057  -0.00065
 151        3PY        -0.00050  -0.00100   0.00031   0.00207   0.00160
 152        3PZ        -0.00021  -0.00164   0.00000   0.00210   0.00385
 153        4XX         0.00024  -0.00010   0.00011   0.00005  -0.00032
 154        4YY         0.00017   0.00033   0.00002   0.00017  -0.00110
 155        4ZZ         0.00022   0.00041   0.00002  -0.00048  -0.00048
 156        4XY         0.00003  -0.00007  -0.00001   0.00015   0.00008
 157        4XZ         0.00001   0.00005   0.00000   0.00002  -0.00008
 158        4YZ        -0.00003   0.00019   0.00007   0.00018  -0.00019
 159 15  H  1S          0.00007   0.00026   0.00003  -0.00024  -0.00084
 160        2S         -0.00038   0.00105   0.00069   0.00011  -0.00073
 161        3PX        -0.00007   0.00005  -0.00011  -0.00007  -0.00015
 162        3PY        -0.00001   0.00014   0.00006  -0.00021  -0.00014
 163        3PZ        -0.00001   0.00021   0.00009  -0.00015  -0.00029
 164 16  O  1S         -0.00002  -0.00005  -0.00003  -0.00017   0.00006
 165        2S         -0.00007   0.00036  -0.00008   0.00139  -0.00051
 166        2PX         0.00000   0.00013   0.00010   0.00012   0.00004
 167        2PY        -0.00002   0.00017  -0.00005   0.00038  -0.00006
 168        2PZ         0.00002  -0.00019   0.00001  -0.00044   0.00031
 169        3S          0.00023  -0.00240   0.00004  -0.00639   0.00249
 170        3PX        -0.00007  -0.00136  -0.00054  -0.00150  -0.00027
 171        3PY         0.00013  -0.00110   0.00028  -0.00254   0.00015
 172        3PZ        -0.00009   0.00131  -0.00012   0.00282  -0.00200
 173        4XX        -0.00007  -0.00014  -0.00012   0.00014  -0.00018
 174        4YY        -0.00003   0.00038  -0.00010   0.00052  -0.00071
 175        4ZZ        -0.00006   0.00035  -0.00012   0.00062   0.00029
 176        4XY        -0.00001   0.00002   0.00001  -0.00001  -0.00015
 177        4XZ        -0.00001  -0.00011  -0.00003  -0.00015   0.00008
 178        4YZ        -0.00003  -0.00006  -0.00006   0.00023   0.00021
 179 17  H  1S          0.00001   0.00060   0.00021   0.00085  -0.00004
 180        2S          0.00024   0.00090   0.00023   0.00168  -0.00018
 181        3PX        -0.00002  -0.00012  -0.00008  -0.00012  -0.00003
 182        3PY         0.00001   0.00012   0.00002   0.00027   0.00004
 183        3PZ        -0.00002  -0.00015  -0.00004  -0.00030   0.00018
 184 18  O  1S          0.00003  -0.00016  -0.00004   0.00016  -0.00056
 185        2S          0.00012   0.00084  -0.00015  -0.00027   0.00102
 186        2PX        -0.00002  -0.00072  -0.00003   0.00031  -0.00107
 187        2PY         0.00002  -0.00059   0.00002   0.00017  -0.00059
 188        2PZ        -0.00003   0.00001  -0.00001   0.00020   0.00013
 189        3S         -0.00059  -0.00430   0.00087   0.00105  -0.00413
 190        3PX         0.00022   0.00166   0.00007  -0.00074   0.00249
 191        3PY        -0.00010   0.00164  -0.00005  -0.00041   0.00116
 192        3PZ         0.00019  -0.00004   0.00005  -0.00094  -0.00050
 193        4XX         0.00006   0.00096  -0.00012  -0.00013   0.00062
 194        4YY         0.00009   0.00045  -0.00014  -0.00011   0.00035
 195        4ZZ         0.00007   0.00018  -0.00009  -0.00001  -0.00008
 196        4XY         0.00001   0.00052  -0.00002  -0.00016   0.00063
 197        4XZ        -0.00002  -0.00004   0.00000   0.00022   0.00001
 198        4YZ        -0.00002  -0.00000   0.00000   0.00022   0.00005
 199 19  O  1S          0.00005   0.00004  -0.00020   0.00001   0.00002
 200        2S          0.00021   0.00017   0.00052   0.00001   0.00011
 201        2PX         0.00001  -0.00002  -0.00007   0.00008   0.00004
 202        2PY         0.00009  -0.00006   0.00052   0.00002   0.00000
 203        2PZ        -0.00000   0.00001   0.00059   0.00004   0.00004
 204        3S         -0.00099  -0.00117  -0.00264   0.00017  -0.00039
 205        3PX        -0.00003  -0.00009   0.00034  -0.00031  -0.00012
 206        3PY        -0.00045   0.00022  -0.00141   0.00001  -0.00007
 207        3PZ        -0.00004  -0.00011  -0.00169  -0.00021  -0.00032
 208        4XX         0.00018   0.00016  -0.00002   0.00001   0.00007
 209        4YY         0.00012   0.00013   0.00050   0.00006   0.00007
 210        4ZZ         0.00018   0.00009   0.00048   0.00003   0.00004
 211        4XY        -0.00002   0.00002  -0.00003  -0.00004  -0.00003
 212        4XZ        -0.00001   0.00002  -0.00003   0.00002  -0.00003
 213        4YZ        -0.00002   0.00007   0.00047  -0.00004  -0.00005
                          16        17        18        19        20
                           O         O         O         O         O
     Eigenvalues --    -4.66801  -4.66589  -4.66465  -4.66251  -0.92366
   1 1   C  1S         -0.00006  -0.00001  -0.00009   0.00010  -0.03103
   2        2S         -0.00148  -0.00006  -0.00009   0.00184   0.04805
   3        2PX         0.00021   0.00015   0.00037  -0.00005   0.00516
   4        2PY         0.00016  -0.00035  -0.00029   0.00010  -0.00357
   5        2PZ         0.00006   0.00023  -0.00015  -0.00007   0.01971
   6        3S          0.00567   0.00064   0.00265  -0.00842   0.06121
   7        3PX         0.00269  -0.00063  -0.00152   0.00544   0.01225
   8        3PY        -0.00237   0.00283   0.00337  -0.00026  -0.01648
   9        3PZ        -0.00027  -0.00372   0.00315  -0.00138  -0.01074
  10        4XX         0.00023   0.00010  -0.00008  -0.00023   0.00098
  11        4YY         0.00005  -0.00006  -0.00025   0.00014  -0.00020
  12        4ZZ        -0.00015  -0.00002   0.00019   0.00003   0.00191
  13        4XY        -0.00047  -0.00014  -0.00019  -0.00051  -0.00171
  14        4XZ        -0.00007   0.00030  -0.00026   0.00005  -0.00021
  15        4YZ         0.00012  -0.00015  -0.00005  -0.00010   0.00236
  16 2   C  1S          0.00005   0.00001  -0.00000  -0.00003  -0.00667
  17        2S          0.00032   0.00020  -0.00002  -0.00032   0.01119
  18        2PX         0.00004  -0.00001  -0.00004  -0.00002   0.00006
  19        2PY        -0.00001   0.00018   0.00005  -0.00014  -0.00473
[...]
  58         V                 0.246397          1.573619
  59         V                 0.262367          1.387995
  60         V                 0.271306          1.611707
  61         V                 0.275402          1.845735
  62         V                 0.289312          2.339633
  63         V                 0.291910          2.115653
  64         V                 0.298361          1.562519
  65         V                 0.316540          2.046223
  66         V                 0.317423          1.820121
  67         V                 0.341830          2.183040
  68         V                 0.361136          1.935741
  69         V                 0.371107          2.114547
  70         V                 0.383105          2.179796
  71         V                 0.428886          2.132836
  72         V                 0.467310          2.035173
  73         V                 0.488544          2.095781
  74         V                 0.527073          2.244858
  75         V                 0.531682          2.386145
  76         V                 0.562410          2.043435
  77         V                 0.570260          2.486506
  78         V                 0.579165          2.293794
  79         V                 0.600525          2.011143
  80         V                 0.661940          2.109998
  81         V                 0.698204          2.666861
  82         V                 0.722248          2.274175
  83         V                 0.728660          2.269118
  84         V                 0.759243          2.313357
  85         V                 0.805495          2.387048
  86         V                 0.839322          2.320443
  87         V                 0.862092          2.311971
  88         V                 0.896455          2.806774
  89         V                 0.904267          2.403250
  90         V                 0.922784          2.603613
  91         V                 0.940769          2.461422
  92         V                 0.945680          2.800660
  93         V                 0.958653          2.733282
  94         V                 0.974094          2.467583
  95         V                 0.998393          2.524676
  96         V                 1.008369          2.533334
  97         V                 1.025327          2.643287
  98         V                 1.029253          2.721173
  99         V                 1.039931          2.764642
 100         V                 1.061922          2.826438
 101         V                 1.078815          2.839793
 102         V                 1.082939          2.832453
 103         V                 1.087545          2.693341
 104         V                 1.116212          3.110145
 105         V                 1.121539          3.032959
 106         V                 1.129732          3.131842
 107         V                 1.138606          3.010564
 108         V                 1.156535          3.148431
 109         V                 1.173155          3.054551
 110         V                 1.178251          3.352698
 111         V                 1.188209          3.209736
 112         V                 1.195900          2.925767
 113         V                 1.213323          3.304278
 114         V                 1.231987          3.126539
 115         V                 1.253014          3.344509
 116         V                 1.285591          3.624796
 117         V                 1.296908          3.741119
 118         V                 1.314538          3.444613
 119         V                 1.335488          3.275071
 120         V                 1.346802          3.799802
 121         V                 1.357665          3.653898
 122         V                 1.395668          3.241086
 123         V                 1.419918          3.081294
 124         V                 1.445097          3.122589
 125         V                 1.484731          3.044815
 126         V                 1.511542          2.732586
 127         V                 1.540799          2.710952
 128         V                 1.568571          2.727197
 129         V                 1.588621          2.700366
 130         V                 1.622735          2.791595
 131         V                 1.650439          2.736274
 132         V                 1.671547          2.764137
 133         V                 1.718174          2.655929
 134         V                 1.722994          2.669253
 135         V                 1.734402          2.713953
 136         V                 1.742921          2.687145
 137         V                 1.770518          2.814955
 138         V                 1.797564          2.765340
 139         V                 1.820043          2.894624
 140         V                 1.827046          2.830109
 141         V                 1.851127          2.849302
 142         V                 1.885423          2.925247
 143         V                 1.904591          2.935544
 144         V                 1.932350          2.920120
 145         V                 1.940504          2.943967
 146         V                 1.961384          3.015377
 147         V                 1.976036          2.967063
 148         V                 1.992846          3.054758
 149         V                 1.994054          3.075947
 150         V                 2.013560          3.080250
 151         V                 2.028203          3.104849
 152         V                 2.049413          3.174396
 153         V                 2.057831          3.226125
 154         V                 2.151115          3.459213
 155         V                 2.156978          3.326935
 156         V                 2.173593          3.198532
 157         V                 2.187512          3.094721
 158         V                 2.212220          3.460223
 159         V                 2.222429          3.438361
 160         V                 2.233288          3.302985
 161         V                 2.263637          3.372006
 162         V                 2.282480          3.287968
 163         V                 2.313392          3.468610
 164         V                 2.331216          3.476624
 165         V                 2.346273          3.520806
 166         V                 2.459130          3.702347
 167         V                 2.487994          3.711963
 168         V                 2.496244          3.719753
 169         V                 2.531792          3.637814
 170         V                 2.557193          3.855076
 171         V                 2.560155          3.752223
 172         V                 2.574143          3.635010
 173         V                 2.605775          3.830380
 174         V                 2.639287          3.885692
 175         V                 2.663310          4.239917
 176         V                 2.668123          4.383206
 177         V                 2.737954          3.908132
 178         V                 2.780178          3.939231
 179         V                 2.782420          3.919588
 180         V                 2.789458          3.691194
 181         V                 2.796320          3.772412
 182         V                 2.802295          3.952882
 183         V                 2.821923          3.822695
 184         V                 2.840242          3.765149
 185         V                 2.864154          3.884431
 186         V                 2.882406          3.861426
 187         V                 2.889445          3.931272
 188         V                 2.928916          4.248744
 189         V                 2.941219          4.182231
 190         V                 2.987214          4.668527
 191         V                 3.015050          4.024571
 192         V                 3.028541          4.622193
 193         V                 3.086563          4.130401
 194         V                 3.158916          4.575910
 195         V                 3.361117          4.976426
 196         V                 3.498250          6.442373
 197         V                 3.518766          6.498904
 198         V                 3.530948          6.403714
 199         V                 3.565261          5.499038
 200         V                 3.579884          5.211897
 201         V                 3.606743          6.064444
 202         V                 3.619862          6.221053
 203         V                 3.683663         10.056857
 204         V                 3.724297          9.862154
 205         V                 3.918864          9.386365
 206         V                 4.080065          9.935135
 207         V                 4.157399         10.204098
 208         V                 4.165682         10.138550
 209         V                 4.215915         10.279179
 210         V                 4.351223         10.530836
 211         V                 4.377107         10.714143
 212         V                 4.497457         10.411915
 213         V                 4.727055         10.332385
 Total kinetic energy from orbitals= 1.283254015929D+03
                          Isotropic Fermi Contact Couplings
        Atom                 a.u.       MegaHertz       Gauss      10(-4) cm-1
     1  C(13)              0.06761      76.01056      27.12246      25.35439
     2  C(13)              0.02182      24.52660       8.75170       8.18119
     3  H(1)               0.00148       6.59642       2.35377       2.20033
     4  H(1)              -0.00033      -1.48960      -0.53153      -0.49688
     5  H(1)              -0.00022      -0.96669      -0.34494      -0.32245
     6  O(17)              0.17130    -103.84054     -37.05289     -34.63748
     7  H(1)               0.00272      12.16576       4.34104       4.05806
     8  P(31)              0.32859     595.10724     212.34906     198.50641
     9  P(31)              0.16392     296.87156     105.93116      99.02569
    10  O(17)              0.61080    -370.26369    -132.11929    -123.50667
    11  H(1)               0.01458      65.19273      23.26239      21.74595
    12  O(17)              0.55856    -338.59847    -120.82036    -112.94429
    13  H(1)               0.01518      67.85833      24.21354      22.63510
    14  O(17)              0.05803     -35.17799     -12.55238     -11.73412
    15  H(1)               0.00252      11.28309       4.02609       3.76363
    16  O(17)              0.19559    -118.56717     -42.30771     -39.54975
    17  H(1)               0.00245      10.97318       3.91550       3.66026
    18  O(17)              0.08753     -53.05968     -18.93301     -17.69881
    19  O(17)              0.04981     -30.19395     -10.77395     -10.07162
 --------------------------------------------------------
       Center         ----  Spin Dipole Couplings  ----
                      3XX-RR        3YY-RR        3ZZ-RR
 --------------------------------------------------------
     1   Atom       -0.049599      0.051455     -0.001856
     2   Atom       -0.001948      0.005263     -0.003315
     3   Atom        0.000103     -0.001483      0.001380
     4   Atom        0.001589      0.000894     -0.002483
     5   Atom        0.001490      0.000316     -0.001807
     6   Atom       -0.011738      0.044436     -0.032698
     7   Atom       -0.002217     -0.002153      0.004370
     8   Atom       -0.071389      0.013343      0.058046
     9   Atom       -0.021622      0.007399      0.014223
    10   Atom        0.031714     -0.102905      0.071190
    11   Atom       -0.006827      0.016897     -0.010070
    12   Atom       -0.002909      0.012472     -0.009562
    13   Atom       -0.003204     -0.011040      0.014244
    14   Atom       -0.005295     -0.001946      0.007241
    15   Atom        0.000325     -0.000399      0.000074
    16   Atom        0.028727     -0.000457     -0.028270
    17   Atom        0.007933     -0.003972     -0.003961
    18   Atom        0.059316     -0.027738     -0.031579
    19   Atom        0.026378     -0.017846     -0.008533
 --------------------------------------------------------
                        XY            XZ            YZ
 --------------------------------------------------------
     1   Atom        0.027960      0.019122      0.060040
     2   Atom        0.000021      0.002000     -0.008513
     3   Atom        0.000999     -0.000668     -0.001618
     4   Atom        0.000714     -0.001586     -0.001411
     5   Atom        0.001199      0.001499     -0.002119
     6   Atom        0.002502      0.001676      0.016189
     7   Atom        0.000914      0.002603     -0.005096
     8   Atom       -0.055713     -0.068941      0.134947
     9   Atom       -0.013747     -0.013258      0.019571
    10   Atom        0.005696      0.094745      0.061825
    11   Atom        0.015363     -0.002654     -0.009355
    12   Atom       -0.045597     -0.101812      0.069311
    13   Atom       -0.002232      0.015622     -0.005152
    14   Atom       -0.003165     -0.003858     -0.002201
    15   Atom       -0.000465     -0.000054      0.001977
    16   Atom        0.056265     -0.006929      0.001251
    17   Atom       -0.006863      0.005777     -0.003839
    18   Atom        0.055852     -0.037802     -0.016624
    19   Atom        0.004087     -0.019298      0.002686
 --------------------------------------------------------


 ---------------------------------------------------------------------------------
              Anisotropic Spin Dipole Couplings in Principal Axis System
 ---------------------------------------------------------------------------------

       Atom             a.u.   MegaHertz   Gauss  10(-4) cm-1        Axes

              Baa    -0.0574    -7.701    -2.748    -2.569  0.9737 -0.1615 -0.1607
     1 C(13)  Bbb    -0.0409    -5.482    -1.956    -1.829  0.0452 -0.5543  0.8311
              Bcc     0.0982    13.184     4.704     4.398  0.2233  0.8165  0.5324
 
              Baa    -0.0090    -1.205    -0.430    -0.402 -0.2385  0.4985  0.8334
     2 C(13)  Bbb    -0.0016    -0.216    -0.077    -0.072  0.9676  0.1953  0.1601
              Bcc     0.0106     1.421     0.507     0.474 -0.0829  0.8446 -0.5289
 
              Baa    -0.0024    -1.276    -0.455    -0.426 -0.2704  0.9011  0.3388
     3 H(1)   Bbb    -0.0002    -0.084    -0.030    -0.028  0.8776  0.0860  0.4716
              Bcc     0.0025     1.360     0.485     0.454 -0.3959 -0.4249  0.8141
 
              Baa    -0.0033    -1.778    -0.634    -0.593  0.2605  0.2658  0.9282
     4 H(1)   Bbb     0.0005     0.250     0.089     0.083 -0.5971  0.7998 -0.0614
              Bcc     0.0029     1.528     0.545     0.510  0.7586  0.5382 -0.3671
 
              Baa    -0.0038    -2.029    -0.724    -0.677 -0.3393  0.5065  0.7927
     5 H(1)   Bbb     0.0015     0.827     0.295     0.276 -0.3050  0.7379 -0.6021
              Bcc     0.0023     1.202     0.429     0.401  0.8898  0.4461  0.0958
 
              Baa    -0.0360     2.606     0.930     0.869 -0.0475 -0.1956  0.9795
     6 O(17)  Bbb    -0.0118     0.855     0.305     0.285  0.9978 -0.0551  0.0373
              Bcc     0.0478    -3.461    -1.235    -1.154  0.0467  0.9791  0.1978
 
              Baa    -0.0061    -3.256    -1.162    -1.086 -0.4910  0.7290  0.4768
     7 H(1)   Bbb    -0.0014    -0.757    -0.270    -0.252  0.8496  0.5217  0.0772
              Bcc     0.0075     4.012     1.432     1.338  0.1925 -0.4430  0.8756
 
              Baa    -0.1027   -22.199    -7.921    -7.405  0.5939 -0.4723  0.6513
     8 P(31)  Bbb    -0.0986   -21.315    -7.606    -7.110  0.7428  0.6329 -0.2184
              Bcc     0.2013    43.513    15.527    14.514 -0.3091  0.6135  0.7267
 
              Baa    -0.0280    -6.049    -2.159    -2.018  0.9466  0.2735  0.1706
     9 P(31)  Bbb    -0.0089    -1.918    -0.685    -0.640 -0.0905  0.7336 -0.6735
              Bcc     0.0369     7.968     2.843     2.658 -0.3093  0.6222  0.7192
 
              Baa    -0.1272     9.202     3.284     3.070  0.1904  0.9077 -0.3739
    10 O(17)  Bbb    -0.0315     2.276     0.812     0.759  0.7831 -0.3701 -0.4999
              Bcc     0.1586   -11.478    -4.096    -3.829  0.5921  0.1976  0.7813
 
              Baa    -0.0154    -8.207    -2.929    -2.738  0.7188 -0.4861 -0.4970
    11 H(1)   Bbb    -0.0115    -6.158    -2.197    -2.054  0.5560 -0.0271  0.8307
              Bcc     0.0269    14.365     5.126     4.792  0.4173  0.8735 -0.2508
 
              Baa    -0.1116     8.078     2.883     2.695  0.6269 -0.1915  0.7552
    12 O(17)  Bbb    -0.0338     2.444     0.872     0.815  0.5138  0.8303 -0.2160
              Bcc     0.1454   -10.523    -3.755    -3.510 -0.5857  0.5235  0.6188
 
              Baa    -0.0129    -6.860    -2.448    -2.288  0.6556 -0.5766 -0.4875
    13 H(1)   Bbb    -0.0114    -6.101    -2.177    -2.035  0.5680  0.8020 -0.1847
              Bcc     0.0243    12.961     4.625     4.323  0.4975 -0.1559  0.8534
 
              Baa    -0.0085     0.612     0.218     0.204  0.8261  0.4935  0.2722
    14 O(17)  Bbb    -0.0000     0.003     0.001     0.001 -0.5103  0.8599 -0.0104
              Bcc     0.0085    -0.615    -0.219    -0.205 -0.2392 -0.1303  0.9622
 
              Baa    -0.0022    -1.170    -0.417    -0.390  0.1246  0.7493 -0.6504
    15 H(1)   Bbb     0.0003     0.153     0.054     0.051  0.9678  0.0526  0.2461
              Bcc     0.0019     1.017     0.363     0.339 -0.2186  0.6602  0.7186
 
              Baa    -0.0456     3.299     1.177     1.100 -0.5945  0.7492 -0.2920
    16 O(17)  Bbb    -0.0269     1.946     0.694     0.649 -0.1429  0.2589  0.9553
              Bcc     0.0725    -5.245    -1.871    -1.749  0.7913  0.6096 -0.0468
 
              Baa    -0.0079    -4.222    -1.506    -1.408  0.1356  0.8023  0.5813
    17 H(1)   Bbb    -0.0058    -3.102    -1.107    -1.035 -0.5255 -0.4391  0.7287
              Bcc     0.0137     7.324     2.613     2.443  0.8399 -0.4042  0.3621
 
              Baa    -0.0553     3.998     1.427     1.334 -0.4709  0.8710 -0.1402
    18 O(17)  Bbb    -0.0443     3.207     1.145     1.070  0.2031  0.2617  0.9435
              Bcc     0.0996    -7.206    -2.571    -2.404  0.8585  0.4158 -0.3001
 
              Baa    -0.0217     1.568     0.560     0.523 -0.3029  0.7429 -0.5969
    19 O(17)  Bbb    -0.0134     0.970     0.346     0.324  0.2684  0.6675  0.6946
              Bcc     0.0351    -2.538    -0.906    -0.847  0.9145  0.0502 -0.4016
 

 ---------------------------------------------------------------------------------


 Test job not archived.
 1\1\GINC-BATAGIN2\SP\UB3LYP\6-31G(d,p)\C2H8O7P2(1-,2)\ORISON\22-Jan-20
 21\0\\#t B3LYP/6-31G(d,p) # Gfinput IOP(6/7=3) Pop=hirshfeld Density T
 est # Units(Ang,Deg)\\etidronate-opt-g09.log\\-1,2\C,0,-0.0264,0.80416
 ,-0.14419\C,0,-0.00302,1.95251,0.87016\H,0,0.01478,1.57511,1.8967\H,0,
 0.87217,2.58124,0.69369\H,0,-0.90857,2.54767,0.73747\O,0,-0.01024,1.37
 999,-1.43643\H,0,-0.12059,0.66428,-2.08173\P,0,1.46432,-0.28297,0.0909
 4\P,0,-1.61343,-0.16664,0.10037\O,0,1.70689,-0.82228,-1.40777\H,0,2.23
 866,-1.63206,-1.42243\O,0,2.75008,0.66831,0.34412\H,0,3.0183,0.63789,1
 .27462\O,0,-1.37276,-1.08775,1.38538\H,0,-0.43907,-1.41309,1.45014\O,0
 ,-1.50828,-1.12954,-1.21896\H,0,-2.39492,-1.31128,-1.56573\O,0,-2.8519
 6,0.64138,0.15505\O,0,1.30284,-1.33083,1.15259\\Version=EM64L-G16RevA.
 03\State=2-A\HF=-1290.3838694\S2=0.751446\S2-1=0.\S2A=0.750002\RMSD=6.
 785e-09\Dipole=0.0876407,-0.2297152,-0.1893365\Quadrupole=-9.9778341,3
 .8881526,6.0896815,3.5162816,4.4034225,4.5396211\PG=C01 [X(C2H8O7P2)]\
 \@


 THE SECRET OF SUCCESS IN LIFE IS TO EAT WHAT YOU LIKE, AND LET THE FOOD
 FIGHT IT OUT INSIDE YOU. -- FROM A FORTUNE COOKIE
 Job cpu time:       0 days  0 hours  7 minutes 37.9 seconds.
 Elapsed time:       0 days  0 hours  0 minutes 57.3 seconds.
 File lengths (MBytes):  RWF=     48 Int=      0 D2E=      0 Chk=      4 Scr=      1
 Normal termination of Gaussian 16 at Fri Jan 22 02:11:36 2021.
