 Entering Gaussian System, Link 0=g16
 Input=w-etidronate-opt-g09.gjf
 Output=w-etidronate-opt-g09.log
 Initial command:
 /usr/local//g16/l1.exe "/home/orison/scrgauss/Gau-9866.inp" -scrdir="/home/orison/scrgauss/"
 Entering Link 1 = /usr/local//g16/l1.exe PID=      9868.
  
 Copyright (c) 1988,1990,1992,1993,1995,1998,2003,2009,2016,
            Gaussian, Inc.  All Rights Reserved.
  
 This is part of the Gaussian(R) 16 program.  It is based on
 the Gaussian(R) 09 system (copyright 2009, Gaussian, Inc.),
 the Gaussian(R) 03 system (copyright 2003, Gaussian, Inc.),
 the Gaussian(R) 98 system (copyright 1998, Gaussian, Inc.),
 the Gaussian(R) 94 system (copyright 1995, Gaussian, Inc.),
 the Gaussian 92(TM) system (copyright 1992, Gaussian, Inc.),
 the Gaussian 90(TM) system (copyright 1990, Gaussian, Inc.),
 the Gaussian 88(TM) system (copyright 1988, Gaussian, Inc.),
 the Gaussian 86(TM) system (copyright 1986, Carnegie Mellon
 University), and the Gaussian 82(TM) system (copyright 1983,
 Carnegie Mellon University). Gaussian is a federally registered
 trademark of Gaussian, Inc.
  
 This software contains proprietary and confidential information,
 including trade secrets, belonging to Gaussian, Inc.
  
 This software is provided under written license and may be
 used, copied, transmitted, or stored only in accord with that
 written license.
  
 The following legend is applicable only to US Government
 contracts under FAR:
  
                    RESTRICTED RIGHTS LEGEND
  
 Use, reproduction and disclosure by the US Government is
 subject to restrictions as set forth in subparagraphs (a)
 and (c) of the Commercial Computer Software - Restricted
 Rights clause in FAR 52.227-19.
  
 Gaussian, Inc.
 340 Quinnipiac St., Bldg. 40, Wallingford CT 06492
  
  
 ---------------------------------------------------------------
 Warning -- This program may not be used in any manner that
 competes with the business of Gaussian, Inc. or will provide
 assistance to any competitor of Gaussian, Inc.  The licensee
 of this program is prohibited from giving any competitor of
 Gaussian, Inc. access to this program.  By using this program,
 the user acknowledges that Gaussian, Inc. is engaged in the
 business of creating and licensing software in the field of
 computational chemistry and represents and warrants to the
 licensee that it is not a competitor of Gaussian, Inc. and that
 it will not use this program in any manner prohibited above.
 ---------------------------------------------------------------
  

 Cite this work as:
 Gaussian 16, Revision A.03,
 M. J. Frisch, G. W. Trucks, H. B. Schlegel, G. E. Scuseria, 
 M. A. Robb, J. R. Cheeseman, G. Scalmani, V. Barone, 
 G. A. Petersson, H. Nakatsuji, X. Li, M. Caricato, A. V. Marenich, 
 J. Bloino, B. G. Janesko, R. Gomperts, B. Mennucci, H. P. Hratchian, 
 J. V. Ortiz, A. F. Izmaylov, J. L. Sonnenberg, D. Williams-Young, 
 F. Ding, F. Lipparini, F. Egidi, J. Goings, B. Peng, A. Petrone, 
 T. Henderson, D. Ranasinghe, V. G. Zakrzewski, J. Gao, N. Rega, 
 G. Zheng, W. Liang, M. Hada, M. Ehara, K. Toyota, R. Fukuda, 
 J. Hasegawa, M. Ishida, T. Nakajima, Y. Honda, O. Kitao, H. Nakai, 
 T. Vreven, K. Throssell, J. A. Montgomery, Jr., J. E. Peralta, 
 F. Ogliaro, M. J. Bearpark, J. J. Heyd, E. N. Brothers, K. N. Kudin, 
 V. N. Staroverov, T. A. Keith, R. Kobayashi, J. Normand, 
 K. Raghavachari, A. P. Rendell, J. C. Burant, S. S. Iyengar, 
 J. Tomasi, M. Cossi, J. M. Millam, M. Klene, C. Adamo, R. Cammi, 
 J. W. Ochterski, R. L. Martin, K. Morokuma, O. Farkas, 
 J. B. Foresman, and D. J. Fox, Gaussian, Inc., Wallingford CT, 2016.
 
 ******************************************
 Gaussian 16:  EM64L-G16RevA.03 25-Dec-2016
                21-Jan-2021 
 ******************************************
 %nproc=8
 Will use up to    8 processors via shared memory.
 %Mem=4GB
 ----------------------------------------------------------------------
 #P B3LYP/6-31G(d,p) # Opt SCRF=(Solvent=Water) # Gfinput IOP(6/7=3) Po
 p=full Density Test # Units(Ang,Deg)
 ----------------------------------------------------------------------
 1/18=20,19=15,26=3,38=1/1,3;
 2/9=110,12=2,17=6,18=5,40=1/2;
 3/5=1,6=6,7=101,11=2,24=10,25=1,30=1,70=2201,71=1,72=1,74=-5/1,2,3;
 4//1;
 5/5=2,38=5,53=1/2;
 6/7=3,22=-1,28=1/1;
 7//1,2,3,16;
 1/18=20,19=15,26=3/3(2);
 2/9=110/2;
 99//99;
 2/9=110/2;
 3/5=1,6=6,7=101,11=2,25=1,30=1,70=2205,71=1,72=1,74=-5/1,2,3;
 4/5=5,16=3,69=1/1;
 5/5=2,38=5,53=1/2;
 7//1,2,3,16;
 1/18=20,19=15,26=3/3(-5);
 2/9=110/2;
 6/7=3,19=2,22=-1,28=1/1;
 99/9=1/99;
 Leave Link    1 at Thu Jan 21 20:16:46 2021, MaxMem=   536870912 cpu:               0.6 elap:               0.2
 (Enter /usr/local//g16/l101.exe)
 -------------------
 Title Card Required
 -------------------
 Symbolic Z-matrix:
 Charge =  0 Multiplicity = 1
 C                    -0.51362   0.87662  -0.01875 
 C                     0.98663   0.87662  -0.01875 
 H                     1.38213  -0.16806  -0.01869 
 H                     1.38165   1.39916  -0.92373 
 H                     1.38167   1.39924   0.88617 
 O                    -1.01939   2.21419  -0.01875 
 H                    -1.97917   2.19387  -0.01874 
 P                    -1.15768   0.02565  -1.493 
 P                    -1.15778   0.02557   1.45542 
 O                    -2.84699  -0.18774  -1.3355 
 H                    -3.20618  -0.52136  -2.16089 
 O                    -0.82906   0.9659   -2.88298 
 H                    -0.78446   0.39455  -3.65316 
 O                    -2.52003  -0.91285   1.02212 
 H                    -2.86835  -1.35122   1.80193 
 O                    -1.61301   1.18335   2.62862 
 H                    -1.47075   0.82267   3.50684 
 O                    -0.09441  -0.86828   2.02135 
 O                    -0.49492  -1.31331  -1.62693 
 
 ITRead=  0  0  0  0  0  0  0  0  0  0  0  0  0  0  0  0  0  0  0
 MicOpt= -1 -1 -1 -1 -1 -1 -1 -1 -1 -1 -1 -1 -1 -1 -1 -1 -1 -1 -1
 NAtoms=     19 NQM=       19 NQMF=       0 NMMI=      0 NMMIF=      0
                NMic=       0 NMicF=      0.
                    Isotopes and Nuclear Properties:
 (Nuclear quadrupole moments (NQMom) in fm**2, nuclear magnetic moments (NMagM)
  in nuclear magnetons)

  Atom         1           2           3           4           5           6           7           8           9          10
 IAtWgt=          12          12           1           1           1          16           1          31          31          16
 AtmWgt=  12.0000000  12.0000000   1.0078250   1.0078250   1.0078250  15.9949146   1.0078250  30.9737634  30.9737634  15.9949146
 NucSpn=           0           0           1           1           1           0           1           1           1           0
 AtZEff=  -0.0000000  -0.0000000  -0.0000000  -0.0000000  -0.0000000  -0.0000000  -0.0000000  -0.0000000  -0.0000000  -0.0000000
 NQMom=    0.0000000   0.0000000   0.0000000   0.0000000   0.0000000   0.0000000   0.0000000   0.0000000   0.0000000   0.0000000
 NMagM=    0.0000000   0.0000000   2.7928460   2.7928460   2.7928460   0.0000000   2.7928460   1.1316000   1.1316000   0.0000000
 AtZNuc=   6.0000000   6.0000000   1.0000000   1.0000000   1.0000000   8.0000000   1.0000000  15.0000000  15.0000000   8.0000000

  Atom        11          12          13          14          15          16          17          18          19
 IAtWgt=           1          16           1          16           1          16           1          16          16
 AtmWgt=   1.0078250  15.9949146   1.0078250  15.9949146   1.0078250  15.9949146   1.0078250  15.9949146  15.9949146
 NucSpn=           1           0           1           0           1           0           1           0           0
 AtZEff=  -0.0000000  -0.0000000  -0.0000000  -0.0000000  -0.0000000  -0.0000000  -0.0000000  -0.0000000  -0.0000000
 NQMom=    0.0000000   0.0000000   0.0000000   0.0000000   0.0000000   0.0000000   0.0000000   0.0000000   0.0000000
 NMagM=    2.7928460   0.0000000   2.7928460   0.0000000   2.7928460   0.0000000   2.7928460   0.0000000   0.0000000
 AtZNuc=   1.0000000   8.0000000   1.0000000   8.0000000   1.0000000   8.0000000   1.0000000   8.0000000   8.0000000
 Leave Link  101 at Thu Jan 21 20:16:46 2021, MaxMem=   536870912 cpu:               1.4 elap:               0.4
 (Enter /usr/local//g16/l103.exe)

 GradGradGradGradGradGradGradGradGradGradGradGradGradGradGradGradGradGrad
 Berny optimization.
 Initialization pass.
                           ----------------------------
                           !    Initial Parameters    !
                           ! (Angstroms and Degrees)  !
 --------------------------                            --------------------------
 ! Name  Definition              Value          Derivative Info.                !
 --------------------------------------------------------------------------------
 ! R1    R(1,2)                  1.5003         estimate D2E/DX2                !
 ! R2    R(1,6)                  1.43           estimate D2E/DX2                !
 ! R3    R(1,8)                  1.82           estimate D2E/DX2                !
 ! R4    R(1,9)                  1.82           estimate D2E/DX2                !
 ! R5    R(2,3)                  1.117          estimate D2E/DX2                !
 ! R6    R(2,4)                  1.1172         estimate D2E/DX2                !
 ! R7    R(2,5)                  1.1172         estimate D2E/DX2                !
 ! R8    R(6,7)                  0.96           estimate D2E/DX2                !
 ! R9    R(8,10)                 1.71           estimate D2E/DX2                !
 ! R10   R(8,12)                 1.71           estimate D2E/DX2                !
 ! R11   R(8,19)                 1.5            estimate D2E/DX2                !
 ! R12   R(9,14)                 1.71           estimate D2E/DX2                !
 ! R13   R(9,16)                 1.71           estimate D2E/DX2                !
 ! R14   R(9,18)                 1.5            estimate D2E/DX2                !
 ! R15   R(10,11)                0.96           estimate D2E/DX2                !
 ! R16   R(12,13)                0.96           estimate D2E/DX2                !
 ! R17   R(14,15)                0.96           estimate D2E/DX2                !
 ! R18   R(16,17)                0.96           estimate D2E/DX2                !
 ! A1    A(2,1,6)              110.7128         estimate D2E/DX2                !
 ! A2    A(2,1,8)              110.7248         estimate D2E/DX2                !
 ! A3    A(2,1,9)              110.7282         estimate D2E/DX2                !
 ! A4    A(6,1,8)              108.191          estimate D2E/DX2                !
 ! A5    A(6,1,9)              108.1922         estimate D2E/DX2                !
 ! A6    A(8,1,9)              108.193          estimate D2E/DX2                !
 ! A7    A(1,2,3)              110.7359         estimate D2E/DX2                !
 ! A8    A(1,2,4)              110.7071         estimate D2E/DX2                !
 ! A9    A(1,2,5)              110.7081         estimate D2E/DX2                !
 ! A10   A(3,2,4)              108.1971         estimate D2E/DX2                !
 ! A11   A(3,2,5)              108.1957         estimate D2E/DX2                !
 ! A12   A(4,2,5)              108.1987         estimate D2E/DX2                !
 ! A13   A(1,6,7)              109.5            estimate D2E/DX2                !
 ! A14   A(1,8,10)             109.4712         estimate D2E/DX2                !
 ! A15   A(1,8,12)             109.4712         estimate D2E/DX2                !
 ! A16   A(1,8,19)             109.4712         estimate D2E/DX2                !
 ! A17   A(10,8,12)            109.4712         estimate D2E/DX2                !
 ! A18   A(10,8,19)            109.4712         estimate D2E/DX2                !
 ! A19   A(12,8,19)            109.4712         estimate D2E/DX2                !
 ! A20   A(1,9,14)             109.4712         estimate D2E/DX2                !
 ! A21   A(1,9,16)             109.4712         estimate D2E/DX2                !
 ! A22   A(1,9,18)             109.4712         estimate D2E/DX2                !
 ! A23   A(14,9,16)            109.4712         estimate D2E/DX2                !
 ! A24   A(14,9,18)            109.4712         estimate D2E/DX2                !
 ! A25   A(16,9,18)            109.4712         estimate D2E/DX2                !
 ! A26   A(8,10,11)            109.5            estimate D2E/DX2                !
 ! A27   A(8,12,13)            109.5            estimate D2E/DX2                !
 ! A28   A(9,14,15)            109.5            estimate D2E/DX2                !
 ! A29   A(9,16,17)            109.5            estimate D2E/DX2                !
 ! D1    D(6,1,2,3)            179.9967         estimate D2E/DX2                !
 ! D2    D(6,1,2,4)            -59.9975         estimate D2E/DX2                !
 ! D3    D(6,1,2,5)             59.992          estimate D2E/DX2                !
 ! D4    D(8,1,2,3)            -60.0088         estimate D2E/DX2                !
 ! D5    D(8,1,2,4)             59.997          estimate D2E/DX2                !
 ! D6    D(8,1,2,5)            179.9866         estimate D2E/DX2                !
 ! D7    D(9,1,2,3)             59.9984         estimate D2E/DX2                !
 ! D8    D(9,1,2,4)           -179.9958         estimate D2E/DX2                !
 ! D9    D(9,1,2,5)            -60.0063         estimate D2E/DX2                !
 ! D10   D(2,1,6,7)           -179.9994         estimate D2E/DX2                !
 ! D11   D(8,1,6,7)             58.501          estimate D2E/DX2                !
 ! D12   D(9,1,6,7)            -58.4949         estimate D2E/DX2                !
 ! D13   D(2,1,8,10)           170.5917         estimate D2E/DX2                !
 ! D14   D(2,1,8,12)           -69.4083         estimate D2E/DX2                !
 ! D15   D(2,1,8,19)            50.5917         estimate D2E/DX2                !
 ! D16   D(6,1,8,10)           -67.9161         estimate D2E/DX2                !
 ! D17   D(6,1,8,12)            52.0839         estimate D2E/DX2                !
 ! D18   D(6,1,8,19)           172.0839         estimate D2E/DX2                !
 ! D19   D(9,1,8,10)            49.0793         estimate D2E/DX2                !
 ! D20   D(9,1,8,12)           169.0793         estimate D2E/DX2                !
 ! D21   D(9,1,8,19)           -70.9207         estimate D2E/DX2                !
 ! D22   D(2,1,9,14)          -140.3222         estimate D2E/DX2                !
 ! D23   D(2,1,9,16)            99.6778         estimate D2E/DX2                !
 ! D24   D(2,1,9,18)           -20.3222         estimate D2E/DX2                !
 ! D25   D(6,1,9,14)            98.1828         estimate D2E/DX2                !
 ! D26   D(6,1,9,16)           -21.8172         estimate D2E/DX2                !
 ! D27   D(6,1,9,18)          -141.8172         estimate D2E/DX2                !
 ! D28   D(8,1,9,14)           -18.8118         estimate D2E/DX2                !
 ! D29   D(8,1,9,16)          -138.8118         estimate D2E/DX2                !
 ! D30   D(8,1,9,18)           101.1882         estimate D2E/DX2                !
 ! D31   D(1,8,10,11)          172.0004         estimate D2E/DX2                !
 ! D32   D(12,8,10,11)          52.0004         estimate D2E/DX2                !
 ! D33   D(19,8,10,11)         -67.9996         estimate D2E/DX2                !
 ! D34   D(1,8,12,13)          154.242          estimate D2E/DX2                !
 ! D35   D(10,8,12,13)         -85.758          estimate D2E/DX2                !
 ! D36   D(19,8,12,13)          34.242          estimate D2E/DX2                !
 ! D37   D(1,9,14,15)         -179.1308         estimate D2E/DX2                !
 ! D38   D(16,9,14,15)         -59.1308         estimate D2E/DX2                !
 ! D39   D(18,9,14,15)          60.8692         estimate D2E/DX2                !
 ! D40   D(1,9,16,17)         -147.9107         estimate D2E/DX2                !
 ! D41   D(14,9,16,17)          92.0893         estimate D2E/DX2                !
 ! D42   D(18,9,16,17)         -27.9107         estimate D2E/DX2                !
 --------------------------------------------------------------------------------
 Trust Radius=3.00D-01 FncErr=1.00D-07 GrdErr=1.00D-06 EigMax=2.50D+02 EigMin=1.00D-04
 Number of steps in this run=     99 maximum allowed number of steps=    114.
 GradGradGradGradGradGradGradGradGradGradGradGradGradGradGradGradGradGrad

 Leave Link  103 at Thu Jan 21 20:16:46 2021, MaxMem=   536870912 cpu:               0.2 elap:               0.1
 (Enter /usr/local//g16/l202.exe)
                          Input orientation:                          
 ---------------------------------------------------------------------
 Center     Atomic      Atomic             Coordinates (Angstroms)
 Number     Number       Type             X           Y           Z
 ---------------------------------------------------------------------
      1          6           0       -0.513620    0.876619   -0.018750
      2          6           0        0.986630    0.876619   -0.018750
      3          1           0        1.382130   -0.168060   -0.018690
      4          1           0        1.381652    1.399161   -0.923728
      5          1           0        1.381670    1.399243    0.886171
      6          8           0       -1.019389    2.214191   -0.018750
      7          1           0       -1.979174    2.193871   -0.018741
      8         15           0       -1.157682    0.025645   -1.493005
      9         15           0       -1.157782    0.025567    1.455416
     10          8           0       -2.846990   -0.187737   -1.335500
     11          1           0       -3.206185   -0.521363   -2.160893
     12          8           0       -0.829063    0.965897   -2.882982
     13          1           0       -0.784459    0.394550   -3.653160
     14          8           0       -2.520033   -0.912849    1.022120
     15          1           0       -2.868346   -1.351223    1.801932
     16          8           0       -1.613005    1.183352    2.628620
     17          1           0       -1.470748    0.822668    3.506840
     18          8           0       -0.094408   -0.868277    2.021347
     19          8           0       -0.494916   -1.313311   -1.626934
 ---------------------------------------------------------------------
                    Distance matrix (angstroms):
                    1          2          3          4          5
     1  C    0.000000
     2  C    1.500250   0.000000
     3  H    2.164537   1.117038   0.000000
     4  H    2.164276   1.117174   1.809772   0.000000
     5  H    2.164288   1.117173   1.809755   1.809899   0.000000
     6  O    1.430000   2.411060   3.382663   2.692258   2.692230
     7  H    1.970533   3.245172   4.108172   3.570114   3.570094
     8  P    1.820000   2.737820   2.943089   2.942591   3.741064
     9  P    1.820000   2.737875   2.943065   3.741098   2.942761
    10  O    2.882933   4.190862   4.429428   4.535330   5.033477
    11  H    3.713897   4.911499   5.076070   5.125157   5.832815
    12  O    2.882933   3.392423   3.792018   2.985575   4.391087
    13  H    3.676231   4.071619   4.268490   3.626441   5.129039
    14  O    2.882933   4.072136   4.106686   4.935064   4.537349
    15  H    3.717916   4.810302   4.772953   5.749462   5.144542
    16  O    2.882933   3.723004   4.219644   4.651206   3.471429
    17  H    3.653599   4.297836   4.642177   5.300798   3.916201
    18  O    2.717057   2.894012   2.613852   3.999187   2.934123
    19  O    2.717057   3.094678   2.724216   3.372464   4.146712
                    6          7          8          9         10
     6  O    0.000000
     7  H    0.960000   0.000000
     8  P    2.642401   2.747637   0.000000
     9  P    2.642422   2.747611   2.948421   0.000000
    10  O    3.292904   2.856400   1.710000   3.269272   0.000000
    11  H    4.105376   3.669724   2.222983   4.191990   0.960000
    12  O    3.130222   3.321830   1.710000   4.451289   2.792418
    13  H    4.071267   4.227754   2.222983   5.135471   3.156681
    14  O    3.621287   3.320788   3.010419   1.710000   2.488184
    15  H    4.409728   4.083279   3.959639   2.222983   3.346286
    16  O    2.902340   2.857227   4.305275   1.710000   4.372282
    17  H    3.817046   3.816859   5.072642   2.222983   5.134512
    18  O    3.810406   4.134133   3.778931   1.500000   4.394117
    19  O    3.912109   4.133961   1.500000   3.425327   2.623757
                   11         12         13         14         15
    11  H    0.000000
    12  O    2.895525   0.000000
    13  H    2.988396   0.960000   0.000000
    14  O    3.279578   4.651762   5.155555   0.000000
    15  H    4.062853   5.610360   6.094943   0.960000   0.000000
    16  O    5.327636   5.571320   6.385096   2.792418   2.946755
    17  H    6.077940   6.423558   7.205544   3.207312   3.096094
    18  O    5.224427   5.287377   5.854138   2.623757   2.824201
    19  O    2.874590   2.623757   2.665749   3.358415   4.170338
                   16         17         18         19
    16  O    0.000000
    17  H    0.960000   0.000000
    18  O    2.623757   2.638237   0.000000
    19  O    5.058971   5.645377   3.697082   0.000000
 Stoichiometry    C2H8O7P2
 Framework group  C1[X(C2H8O7P2)]
 Deg. of freedom    51
 Full point group                 C1      NOp   1
 Largest Abelian subgroup         C1      NOp   1
 Largest concise Abelian subgroup C1      NOp   1
                         Standard orientation:                         
 ---------------------------------------------------------------------
 Center     Atomic      Atomic             Coordinates (Angstroms)
 Number     Number       Type             X           Y           Z
 ---------------------------------------------------------------------
      1          6           0       -0.000014    0.838703   -0.165706
      2          6           0        0.023774    2.017012    0.762611
      3          1           0        0.030260    1.681136    1.827937
      4          1           0        0.934764    2.639520    0.587514
      5          1           0       -0.874907    2.661831    0.605594
      6          8           0       -0.008386    1.269231   -1.529332
      7          1           0       -0.023608    0.502833   -2.107261
      8         15           0        1.464068   -0.211901    0.089438
      9         15           0       -1.483984   -0.175786    0.118979
     10          8           0        1.279854   -1.668814   -0.786672
     11          1           0        2.099535   -2.167541   -0.755138
     12          8           0        2.858833    0.610994   -0.459720
     13          1           0        3.629772    0.282979    0.008959
     14          8           0       -1.072094   -1.831780    0.008841
     15          1           0       -1.857215   -2.367053    0.145473
     16          8           0       -2.664563    0.197600   -1.060392
     17          1           0       -3.540322    0.096914   -0.680249
     18          8           0       -2.032748    0.113193    1.484757
     19          8           0        1.608842   -0.521625    1.549955
 ---------------------------------------------------------------------
 Rotational constants (GHZ):           1.3216342           0.6963142           0.6401107
 Leave Link  202 at Thu Jan 21 20:16:47 2021, MaxMem=   536870912 cpu:               0.7 elap:               0.2
 (Enter /usr/local//g16/l301.exe)
 Standard basis: 6-31G(d,p) (6D, 7F)
 Ernie: Thresh=  0.10000D-02 Tol=  0.10000D-05 Strict=F.
 AO basis set in the form of general basis input (Overlap normalization):
      1 0
 S   6 1.00       0.000000000000
      0.3047524880D+04  0.1834737132D-02
      0.4573695180D+03  0.1403732281D-01
      0.1039486850D+03  0.6884262226D-01
      0.2921015530D+02  0.2321844432D+00
      0.9286662960D+01  0.4679413484D+00
      0.3163926960D+01  0.3623119853D+00
 SP   3 1.00       0.000000000000
      0.7868272350D+01 -0.1193324198D+00  0.6899906659D-01
      0.1881288540D+01 -0.1608541517D+00  0.3164239610D+00
      0.5442492580D+00  0.1143456438D+01  0.7443082909D+00
 SP   1 1.00       0.000000000000
      0.1687144782D+00  0.1000000000D+01  0.1000000000D+01
 D   1 1.00       0.000000000000
      0.8000000000D+00  0.1000000000D+01
 ****
      2 0
 S   6 1.00       0.000000000000
      0.3047524880D+04  0.1834737132D-02
      0.4573695180D+03  0.1403732281D-01
      0.1039486850D+03  0.6884262226D-01
      0.2921015530D+02  0.2321844432D+00
      0.9286662960D+01  0.4679413484D+00
      0.3163926960D+01  0.3623119853D+00
 SP   3 1.00       0.000000000000
      0.7868272350D+01 -0.1193324198D+00  0.6899906659D-01
      0.1881288540D+01 -0.1608541517D+00  0.3164239610D+00
      0.5442492580D+00  0.1143456438D+01  0.7443082909D+00
 SP   1 1.00       0.000000000000
      0.1687144782D+00  0.1000000000D+01  0.1000000000D+01
 D   1 1.00       0.000000000000
      0.8000000000D+00  0.1000000000D+01
 ****
      3 0
 S   3 1.00       0.000000000000
      0.1873113696D+02  0.3349460434D-01
      0.2825394365D+01  0.2347269535D+00
      0.6401216923D+00  0.8137573261D+00
 S   1 1.00       0.000000000000
      0.1612777588D+00  0.1000000000D+01
 P   1 1.00       0.000000000000
      0.1100000000D+01  0.1000000000D+01
 ****
      4 0
 S   3 1.00       0.000000000000
      0.1873113696D+02  0.3349460434D-01
      0.2825394365D+01  0.2347269535D+00
      0.6401216923D+00  0.8137573261D+00
 S   1 1.00       0.000000000000
      0.1612777588D+00  0.1000000000D+01
 P   1 1.00       0.000000000000
      0.1100000000D+01  0.1000000000D+01
 ****
      5 0
 S   3 1.00       0.000000000000
      0.1873113696D+02  0.3349460434D-01
      0.2825394365D+01  0.2347269535D+00
      0.6401216923D+00  0.8137573261D+00
 S   1 1.00       0.000000000000
      0.1612777588D+00  0.1000000000D+01
 P   1 1.00       0.000000000000
      0.1100000000D+01  0.1000000000D+01
 ****
      6 0
 S   6 1.00       0.000000000000
      0.5484671660D+04  0.1831074430D-02
      0.8252349460D+03  0.1395017220D-01
      0.1880469580D+03  0.6844507810D-01
      0.5296450000D+02  0.2327143360D+00
      0.1689757040D+02  0.4701928980D+00
      0.5799635340D+01  0.3585208530D+00
 SP   3 1.00       0.000000000000
      0.1553961625D+02 -0.1107775495D+00  0.7087426823D-01
      0.3599933586D+01 -0.1480262627D+00  0.3397528391D+00
      0.1013761750D+01  0.1130767015D+01  0.7271585773D+00
 SP   1 1.00       0.000000000000
      0.2700058226D+00  0.1000000000D+01  0.1000000000D+01
 D   1 1.00       0.000000000000
      0.8000000000D+00  0.1000000000D+01
 ****
      7 0
 S   3 1.00       0.000000000000
      0.1873113696D+02  0.3349460434D-01
      0.2825394365D+01  0.2347269535D+00
      0.6401216923D+00  0.8137573261D+00
 S   1 1.00       0.000000000000
      0.1612777588D+00  0.1000000000D+01
 P   1 1.00       0.000000000000
      0.1100000000D+01  0.1000000000D+01
 ****
      8 0
 S   6 1.00       0.000000000000
      0.1941330000D+05  0.1851598923D-02
      0.2909420000D+04  0.1420619174D-01
      0.6613640000D+03  0.6999945928D-01
      0.1857590000D+03  0.2400788603D+00
      0.5919430000D+02  0.4847617180D+00
      0.2003100000D+02  0.3351998050D+00
 SP   6 1.00       0.000000000000
      0.3394780000D+03 -0.2782170105D-02  0.4564616191D-02
      0.8101010000D+02 -0.3604990135D-01  0.3369357188D-01
      0.2587800000D+02 -0.1166310044D+00  0.1397548834D+00
      0.9452210000D+01  0.9683280364D-01  0.3393617168D+00
      0.3665660000D+01  0.6144180231D+00  0.4509206237D+00
      0.1467460000D+01  0.4037980152D+00  0.2385858009D+00
 SP   3 1.00       0.000000000000
      0.2156230000D+01 -0.2529241139D+00 -0.1776531273D-01
      0.7489970000D+00  0.3285184468D-01  0.2740581964D+00
      0.2831450000D+00  0.1081254762D+01  0.7854215630D+00
 SP   1 1.00       0.000000000000
      0.9983170000D-01  0.1000000000D+01  0.1000000000D+01
 D   1 1.00       0.000000000000
      0.5500000000D+00  0.1000000000D+01
 ****
      9 0
 S   6 1.00       0.000000000000
      0.1941330000D+05  0.1851598923D-02
      0.2909420000D+04  0.1420619174D-01
      0.6613640000D+03  0.6999945928D-01
      0.1857590000D+03  0.2400788603D+00
      0.5919430000D+02  0.4847617180D+00
      0.2003100000D+02  0.3351998050D+00
 SP   6 1.00       0.000000000000
      0.3394780000D+03 -0.2782170105D-02  0.4564616191D-02
      0.8101010000D+02 -0.3604990135D-01  0.3369357188D-01
      0.2587800000D+02 -0.1166310044D+00  0.1397548834D+00
      0.9452210000D+01  0.9683280364D-01  0.3393617168D+00
      0.3665660000D+01  0.6144180231D+00  0.4509206237D+00
      0.1467460000D+01  0.4037980152D+00  0.2385858009D+00
 SP   3 1.00       0.000000000000
      0.2156230000D+01 -0.2529241139D+00 -0.1776531273D-01
      0.7489970000D+00  0.3285184468D-01  0.2740581964D+00
      0.2831450000D+00  0.1081254762D+01  0.7854215630D+00
 SP   1 1.00       0.000000000000
      0.9983170000D-01  0.1000000000D+01  0.1000000000D+01
 D   1 1.00       0.000000000000
      0.5500000000D+00  0.1000000000D+01
 ****
     10 0
 S   6 1.00       0.000000000000
      0.5484671660D+04  0.1831074430D-02
      0.8252349460D+03  0.1395017220D-01
      0.1880469580D+03  0.6844507810D-01
      0.5296450000D+02  0.2327143360D+00
      0.1689757040D+02  0.4701928980D+00
      0.5799635340D+01  0.3585208530D+00
 SP   3 1.00       0.000000000000
      0.1553961625D+02 -0.1107775495D+00  0.7087426823D-01
      0.3599933586D+01 -0.1480262627D+00  0.3397528391D+00
      0.1013761750D+01  0.1130767015D+01  0.7271585773D+00
 SP   1 1.00       0.000000000000
      0.2700058226D+00  0.1000000000D+01  0.1000000000D+01
 D   1 1.00       0.000000000000
      0.8000000000D+00  0.1000000000D+01
 ****
     11 0
 S   3 1.00       0.000000000000
      0.1873113696D+02  0.3349460434D-01
      0.2825394365D+01  0.2347269535D+00
      0.6401216923D+00  0.8137573261D+00
 S   1 1.00       0.000000000000
      0.1612777588D+00  0.1000000000D+01
 P   1 1.00       0.000000000000
      0.1100000000D+01  0.1000000000D+01
 ****
     12 0
 S   6 1.00       0.000000000000
      0.5484671660D+04  0.1831074430D-02
      0.8252349460D+03  0.1395017220D-01
      0.1880469580D+03  0.6844507810D-01
      0.5296450000D+02  0.2327143360D+00
      0.1689757040D+02  0.4701928980D+00
      0.5799635340D+01  0.3585208530D+00
 SP   3 1.00       0.000000000000
      0.1553961625D+02 -0.1107775495D+00  0.7087426823D-01
      0.3599933586D+01 -0.1480262627D+00  0.3397528391D+00
      0.1013761750D+01  0.1130767015D+01  0.7271585773D+00
 SP   1 1.00       0.000000000000
      0.2700058226D+00  0.1000000000D+01  0.1000000000D+01
 D   1 1.00       0.000000000000
      0.8000000000D+00  0.1000000000D+01
 ****
     13 0
 S   3 1.00       0.000000000000
      0.1873113696D+02  0.3349460434D-01
      0.2825394365D+01  0.2347269535D+00
      0.6401216923D+00  0.8137573261D+00
 S   1 1.00       0.000000000000
      0.1612777588D+00  0.1000000000D+01
 P   1 1.00       0.000000000000
      0.1100000000D+01  0.1000000000D+01
 ****
     14 0
 S   6 1.00       0.000000000000
      0.5484671660D+04  0.1831074430D-02
      0.8252349460D+03  0.1395017220D-01
      0.1880469580D+03  0.6844507810D-01
      0.5296450000D+02  0.2327143360D+00
      0.1689757040D+02  0.4701928980D+00
      0.5799635340D+01  0.3585208530D+00
 SP   3 1.00       0.000000000000
      0.1553961625D+02 -0.1107775495D+00  0.7087426823D-01
      0.3599933586D+01 -0.1480262627D+00  0.3397528391D+00
      0.1013761750D+01  0.1130767015D+01  0.7271585773D+00
 SP   1 1.00       0.000000000000
      0.2700058226D+00  0.1000000000D+01  0.1000000000D+01
 D   1 1.00       0.000000000000
      0.8000000000D+00  0.1000000000D+01
 ****
     15 0
 S   3 1.00       0.000000000000
      0.1873113696D+02  0.3349460434D-01
      0.2825394365D+01  0.2347269535D+00
      0.6401216923D+00  0.8137573261D+00
 S   1 1.00       0.000000000000
      0.1612777588D+00  0.1000000000D+01
 P   1 1.00       0.000000000000
      0.1100000000D+01  0.1000000000D+01
 ****
     16 0
 S   6 1.00       0.000000000000
      0.5484671660D+04  0.1831074430D-02
      0.8252349460D+03  0.1395017220D-01
      0.1880469580D+03  0.6844507810D-01
      0.5296450000D+02  0.2327143360D+00
      0.1689757040D+02  0.4701928980D+00
      0.5799635340D+01  0.3585208530D+00
 SP   3 1.00       0.000000000000
      0.1553961625D+02 -0.1107775495D+00  0.7087426823D-01
      0.3599933586D+01 -0.1480262627D+00  0.3397528391D+00
      0.1013761750D+01  0.1130767015D+01  0.7271585773D+00
 SP   1 1.00       0.000000000000
      0.2700058226D+00  0.1000000000D+01  0.1000000000D+01
 D   1 1.00       0.000000000000
      0.8000000000D+00  0.1000000000D+01
 ****
     17 0
 S   3 1.00       0.000000000000
      0.1873113696D+02  0.3349460434D-01
      0.2825394365D+01  0.2347269535D+00
      0.6401216923D+00  0.8137573261D+00
 S   1 1.00       0.000000000000
      0.1612777588D+00  0.1000000000D+01
 P   1 1.00       0.000000000000
      0.1100000000D+01  0.1000000000D+01
 ****
     18 0
 S   6 1.00       0.000000000000
      0.5484671660D+04  0.1831074430D-02
      0.8252349460D+03  0.1395017220D-01
      0.1880469580D+03  0.6844507810D-01
      0.5296450000D+02  0.2327143360D+00
      0.1689757040D+02  0.4701928980D+00
      0.5799635340D+01  0.3585208530D+00
 SP   3 1.00       0.000000000000
      0.1553961625D+02 -0.1107775495D+00  0.7087426823D-01
      0.3599933586D+01 -0.1480262627D+00  0.3397528391D+00
      0.1013761750D+01  0.1130767015D+01  0.7271585773D+00
 SP   1 1.00       0.000000000000
      0.2700058226D+00  0.1000000000D+01  0.1000000000D+01
 D   1 1.00       0.000000000000
      0.8000000000D+00  0.1000000000D+01
 ****
     19 0
 S   6 1.00       0.000000000000
      0.5484671660D+04  0.1831074430D-02
      0.8252349460D+03  0.1395017220D-01
      0.1880469580D+03  0.6844507810D-01
      0.5296450000D+02  0.2327143360D+00
      0.1689757040D+02  0.4701928980D+00
      0.5799635340D+01  0.3585208530D+00
 SP   3 1.00       0.000000000000
      0.1553961625D+02 -0.1107775495D+00  0.7087426823D-01
      0.3599933586D+01 -0.1480262627D+00  0.3397528391D+00
      0.1013761750D+01  0.1130767015D+01  0.7271585773D+00
 SP   1 1.00       0.000000000000
      0.2700058226D+00  0.1000000000D+01  0.1000000000D+01
 D   1 1.00       0.000000000000
      0.8000000000D+00  0.1000000000D+01
 ****

 There are   213 symmetry adapted cartesian basis functions of A   symmetry.
 There are   213 symmetry adapted basis functions of A   symmetry.
   213 basis functions,   412 primitive gaussians,   213 cartesian basis functions
    53 alpha electrons       53 beta electrons
       nuclear repulsion energy      1010.6683210970 Hartrees.
 IExCor=  402 DFT=T Ex+Corr=B3LYP ExCW=0 ScaHFX=  0.200000
 ScaDFX=  0.800000  0.720000  1.000000  0.810000 ScalE2=  1.000000  1.000000
 IRadAn=      5 IRanWt=     -1 IRanGd=            0 ICorTp=0 IEmpDi=  4
 NAtoms=   19 NActive=   19 NUniq=   19 SFac= 1.00D+00 NAtFMM=   60 NAOKFM=F Big=F
 Integral buffers will be    131072 words long.
 Raffenetti 2 integral format.
 Two-electron integral symmetry is turned on.
 ------------------------------------------------------------------------------
 Polarizable Continuum Model (PCM)
 =================================
 Model                : PCM.
 Atomic radii         : UFF (Universal Force Field).
 Polarization charges : Total charges.
 Charge compensation  : None.
 Solution method      : On-the-fly selection.
 Cavity type          : Scaled VdW (van der Waals Surface) (Alpha=1.100).
 Cavity algorithm     : GePol (No added spheres)
                        Default sphere list used, NSphG=   19.
                        Lebedev-Laikov grids with approx.  5.0 points / Ang**2.
                        Smoothing algorithm: York/Karplus (Gamma=1.0000).
                        Polarization charges: spherical gaussians, with
                                              point-specific exponents (IZeta= 3).
                        Self-potential: point-specific (ISelfS= 7).
                        Self-field    : sphere-specific E.n sum rule (ISelfD= 2).
 1st derivatives      : Analytical E(r).r(x)/FMM algorithm (CHGder, D1EAlg=3).
                        Cavity 1st derivative terms included.
 Solvent              : Water, Eps=  78.355300 Eps(inf)=   1.777849
 ------------------------------------------------------------------------------
 Spheres list:
 ISph  on   Nord     Re0    Alpha      Xe            Ye            Ze
    1   C      1    1.9255  1.100     -0.000014      0.838703     -0.165706
    2   C      2    1.9255  1.100      0.023774      2.017012      0.762611
    3   H      3    1.4430  1.100      0.030260      1.681136      1.827937
    4   H      4    1.4430  1.100      0.934764      2.639520      0.587514
    5   H      5    1.4430  1.100     -0.874907      2.661831      0.605594
    6   O      6    1.7500  1.100     -0.008386      1.269231     -1.529332
    7   H      7    1.4430  1.100     -0.023608      0.502833     -2.107261
    8   P      8    2.0735  1.100      1.464068     -0.211901      0.089438
    9   P      9    2.0735  1.100     -1.483984     -0.175786      0.118979
   10   O     10    1.7500  1.100      1.279854     -1.668814     -0.786672
   11   H     11    1.4430  1.100      2.099535     -2.167541     -0.755138
   12   O     12    1.7500  1.100      2.858833      0.610994     -0.459720
   13   H     13    1.4430  1.100      3.629772      0.282979      0.008959
   14   O     14    1.7500  1.100     -1.072094     -1.831780      0.008841
   15   H     15    1.4430  1.100     -1.857215     -2.367053      0.145473
   16   O     16    1.7500  1.100     -2.664563      0.197600     -1.060392
   17   H     17    1.4430  1.100     -3.540322      0.096914     -0.680249
   18   O     18    1.7500  1.100     -2.032748      0.113193      1.484757
   19   O     19    1.7500  1.100      1.608842     -0.521625      1.549955
 ------------------------------------------------------------------------------
 GePol: Number of generator spheres                  =      19
 GePol: Total number of spheres                      =      19
 GePol: Number of exposed spheres                    =      19 (100.00%)
 GePol: Number of points                             =    1700
 GePol: Average weight of points                     =       0.13
 GePol: Minimum weight of points                     =   0.84D-10
 GePol: Maximum weight of points                     =    0.20577
 GePol: Number of points with low weight             =      95
 GePol: Fraction of low-weight points (<1% of avg)   =       5.59%
 GePol: Cavity surface area                          =    226.124 Ang**2
 GePol: Cavity volume                                =    230.110 Ang**3
 Leave Link  301 at Thu Jan 21 20:16:47 2021, MaxMem=   536870912 cpu:               0.4 elap:               0.1
 (Enter /usr/local//g16/l302.exe)
 NPDir=0 NMtPBC=     1 NCelOv=     1 NCel=       1 NClECP=     1 NCelD=      1
         NCelK=      1 NCelE2=     1 NClLst=     1 CellRange=     0.0.
 One-electron integrals computed using PRISM.
 One-electron integral symmetry used in STVInt
 NBasis=   213 RedAO= T EigKep=  3.87D-03  NBF=   213
 NBsUse=   213 1.00D-06 EigRej= -1.00D+00 NBFU=   213
 Precomputing XC quadrature grid using
 IXCGrd= 4 IRadAn=           5 IRanWt=          -1 IRanGd=           0 AccXCQ= 0.00D+00.
 Generated NRdTot=       0 NPtTot=           0 NUsed=           0 NTot=          32
 NSgBfM=   213   213   213   213   213 MxSgAt=    19 MxSgA2=    19.
 Leave Link  302 at Thu Jan 21 20:16:50 2021, MaxMem=   536870912 cpu:              14.4 elap:               3.6
 (Enter /usr/local//g16/l303.exe)
 DipDrv:  MaxL=1.
 Leave Link  303 at Thu Jan 21 20:16:51 2021, MaxMem=   536870912 cpu:               0.9 elap:               0.2
 (Enter /usr/local//g16/l401.exe)
 ExpMin= 9.98D-02 ExpMax= 1.94D+04 ExpMxC= 2.91D+03 IAcc=3 IRadAn=         5 AccDes= 0.00D+00
 Harris functional with IExCor=  402 and IRadAn=       5 diagonalized for initial guess.
 HarFok:  IExCor=  402 AccDes= 0.00D+00 IRadAn=         5 IDoV= 1 UseB2=F ITyADJ=14
 ICtDFT=  3500011 ScaDFX=  1.000000  1.000000  1.000000  1.000000
 FoFCou: FMM=F IPFlag=           0 FMFlag=      100000 FMFlg1=           0
         NFxFlg=           0 DoJE=T BraDBF=F KetDBF=T FulRan=T
         wScrn=  0.000000 ICntrl=       500 IOpCl=  0 I1Cent=   200000004 NGrid=           0
         NMat0=    1 NMatS0=      1 NMatT0=    0 NMatD0=    1 NMtDS0=    0 NMtDT0=    0
 Petite list used in FoFCou.
 Harris En= -1290.56732919991    
 JPrj=0 DoOrth=F DoCkMO=F.
 Leave Link  401 at Thu Jan 21 20:16:55 2021, MaxMem=   536870912 cpu:              16.1 elap:               4.1
 (Enter /usr/local//g16/l502.exe)
 Integral symmetry usage will be decided dynamically.
 Closed shell SCF:
 Using DIIS extrapolation, IDIIS=  1040.
 NGot=   536870912 LenX=   536776148 LenY=   536730338
 Requested convergence on RMS density matrix=1.00D-08 within 128 cycles.
 Requested convergence on MAX density matrix=1.00D-06.
 Requested convergence on             energy=1.00D-06.
 No special actions if energy rises.
 Fock matrices will be formed incrementally for  20 cycles.

 Cycle   1  Pass 1  IDiag  1:
 FoFJK:  IHMeth= 1 ICntrl=       0 DoSepK=F KAlg= 0 I1Cent=           0 FoldK=F
 IRaf= 910000000 NMat=       1 IRICut=       1 DoRegI=T DoRafI=F ISym2E= 0 IDoP0=0 IntGTp=1.
 FoFCou: FMM=F IPFlag=           0 FMFlag=      100000 FMFlg1=           0
         NFxFlg=           0 DoJE=F BraDBF=F KetDBF=F FulRan=T
         wScrn=  0.000000 ICntrl=         0 IOpCl=  0 I1Cent=           0 NGrid=           0
         NMat0=    1 NMatS0=      1 NMatT0=    0 NMatD0=    1 NMtDS0=    0 NMtDT0=    0
 Symmetry not used in FoFCou.
 Inv3:  Mode=1 IEnd=     8670000.
 Iteration    1 A*A^-1 deviation from unit magnitude is 7.44D-15 for     51.
 Iteration    1 A*A^-1 deviation from orthogonality  is 4.69D-15 for   1601    548.
 Iteration    1 A^-1*A deviation from unit magnitude is 7.44D-15 for     51.
 Iteration    1 A^-1*A deviation from orthogonality  is 2.07D-15 for   1632   1493.
 E= -1289.76944573698    
 DIIS: error= 4.29D-02 at cycle   1 NSaved=   1.
 NSaved= 1 IEnMin= 1 EnMin= -1289.76944573698     IErMin= 1 ErrMin= 4.29D-02
 ErrMax= 4.29D-02  0.00D+00 EMaxC= 1.00D-01 BMatC= 8.49D-01 BMatP= 8.49D-01
 IDIUse=3 WtCom= 5.71D-01 WtEn= 4.29D-01
 Coeff-Com:  0.100D+01
 Coeff-En:   0.100D+01
 Coeff:      0.100D+01
 Gap=     0.193 Goal=   None    Shift=    0.000
 GapD=    0.193 DampG=1.000 DampE=0.500 DampFc=0.5000 IDamp=-1.
 Damping current iteration by 5.00D-01
 RMSDP=1.06D-02 MaxDP=4.69D-01              OVMax= 3.18D-01

 Cycle   2  Pass 1  IDiag  1:
 RMSU=  5.29D-03    CP:  1.00D+00
 E= -1289.85463119411     Delta-E=       -0.085185457131 Rises=F Damp=T
 DIIS: error= 1.70D-02 at cycle   2 NSaved=   2.
 NSaved= 2 IEnMin= 2 EnMin= -1289.85463119411     IErMin= 2 ErrMin= 1.70D-02
 ErrMax= 1.70D-02  0.00D+00 EMaxC= 1.00D-01 BMatC= 1.41D-01 BMatP= 8.49D-01
 IDIUse=3 WtCom= 8.30D-01 WtEn= 1.70D-01
 Coeff-Com:  0.264D+00 0.736D+00
 Coeff-En:   0.443D+00 0.557D+00
 Coeff:      0.295D+00 0.705D+00
 Gap=     0.269 Goal=   None    Shift=    0.000
 RMSDP=3.02D-03 MaxDP=1.28D-01 DE=-8.52D-02 OVMax= 2.20D-01

 Cycle   3  Pass 1  IDiag  1:
 RMSU=  1.89D-03    CP:  9.97D-01  5.54D-01
 E= -1290.35870069999     Delta-E=       -0.504069505876 Rises=F Damp=F
 DIIS: error= 8.30D-03 at cycle   3 NSaved=   3.
 NSaved= 3 IEnMin= 3 EnMin= -1290.35870069999     IErMin= 3 ErrMin= 8.30D-03
 ErrMax= 8.30D-03  0.00D+00 EMaxC= 1.00D-01 BMatC= 6.12D-02 BMatP= 1.41D-01
 IDIUse=3 WtCom= 9.17D-01 WtEn= 8.30D-02
 Coeff-Com:  0.144D+00 0.434D+00 0.422D+00
 Coeff-En:   0.000D+00 0.000D+00 0.100D+01
 Coeff:      0.132D+00 0.398D+00 0.470D+00
 Gap=     0.254 Goal=   None    Shift=    0.000
 RMSDP=1.26D-03 MaxDP=2.99D-02 DE=-5.04D-01 OVMax= 5.08D-02

 Cycle   4  Pass 1  IDiag  1:
 RMSU=  7.73D-04    CP:  1.00D+00  6.17D-01  5.01D-01
 E= -1290.40539050434     Delta-E=       -0.046689804351 Rises=F Damp=F
 DIIS: error= 2.82D-03 at cycle   4 NSaved=   4.
 NSaved= 4 IEnMin= 4 EnMin= -1290.40539050434     IErMin= 4 ErrMin= 2.82D-03
 ErrMax= 2.82D-03  0.00D+00 EMaxC= 1.00D-01 BMatC= 5.93D-03 BMatP= 6.12D-02
 IDIUse=3 WtCom= 9.72D-01 WtEn= 2.82D-02
 Coeff-Com:  0.137D-01 0.762D-01 0.239D+00 0.671D+00
 Coeff-En:   0.000D+00 0.000D+00 0.402D-01 0.960D+00
 Coeff:      0.133D-01 0.741D-01 0.234D+00 0.679D+00
 Gap=     0.248 Goal=   None    Shift=    0.000
 RMSDP=3.53D-04 MaxDP=9.89D-03 DE=-4.67D-02 OVMax= 1.60D-02

 Cycle   5  Pass 1  IDiag  1:
 RMSU=  2.48D-04    CP:  1.00D+00  6.16D-01  5.79D-01  7.35D-01
 E= -1290.40900685883     Delta-E=       -0.003616354485 Rises=F Damp=F
 DIIS: error= 1.27D-03 at cycle   5 NSaved=   5.
 NSaved= 5 IEnMin= 5 EnMin= -1290.40900685883     IErMin= 5 ErrMin= 1.27D-03
 ErrMax= 1.27D-03  0.00D+00 EMaxC= 1.00D-01 BMatC= 8.44D-04 BMatP= 5.93D-03
 IDIUse=3 WtCom= 9.87D-01 WtEn= 1.27D-02
 Coeff-Com: -0.266D-02 0.111D-01 0.968D-01 0.394D+00 0.501D+00
 Coeff-En:   0.000D+00 0.000D+00 0.000D+00 0.108D+00 0.892D+00
 Coeff:     -0.263D-02 0.110D-01 0.955D-01 0.390D+00 0.506D+00
 Gap=     0.247 Goal=   None    Shift=    0.000
 RMSDP=1.44D-04 MaxDP=4.07D-03 DE=-3.62D-03 OVMax= 5.06D-03

 Cycle   6  Pass 1  IDiag  1:
 RMSU=  5.43D-05    CP:  1.00D+00  6.18D-01  5.85D-01  8.00D-01  5.05D-01
 E= -1290.40972842863     Delta-E=       -0.000721569805 Rises=F Damp=F
 DIIS: error= 2.72D-04 at cycle   6 NSaved=   6.
 NSaved= 6 IEnMin= 6 EnMin= -1290.40972842863     IErMin= 6 ErrMin= 2.72D-04
 ErrMax= 2.72D-04  0.00D+00 EMaxC= 1.00D-01 BMatC= 3.30D-05 BMatP= 8.44D-04
 IDIUse=3 WtCom= 9.97D-01 WtEn= 2.72D-03
 Coeff-Com: -0.149D-02 0.139D-02 0.313D-01 0.136D+00 0.243D+00 0.590D+00
 Coeff-En:   0.000D+00 0.000D+00 0.000D+00 0.000D+00 0.000D+00 0.100D+01
 Coeff:     -0.149D-02 0.139D-02 0.312D-01 0.135D+00 0.242D+00 0.591D+00
 Gap=     0.247 Goal=   None    Shift=    0.000
 RMSDP=2.90D-05 MaxDP=1.45D-03 DE=-7.22D-04 OVMax= 1.07D-03

 Cycle   7  Pass 1  IDiag  1:
 RMSU=  1.89D-05    CP:  1.00D+00  6.17D-01  5.83D-01  8.02D-01  5.37D-01
                    CP:  6.53D-01
 E= -1290.40975656633     Delta-E=       -0.000028137697 Rises=F Damp=F
 DIIS: error= 4.19D-05 at cycle   7 NSaved=   7.
 NSaved= 7 IEnMin= 7 EnMin= -1290.40975656633     IErMin= 7 ErrMin= 4.19D-05
 ErrMax= 4.19D-05  0.00D+00 EMaxC= 1.00D-01 BMatC= 1.67D-06 BMatP= 3.30D-05
 IDIUse=1 WtCom= 1.00D+00 WtEn= 0.00D+00
 Coeff-Com: -0.368D-03-0.729D-03 0.482D-02 0.201D-01 0.608D-01 0.238D+00
 Coeff-Com:  0.677D+00
 Coeff:     -0.368D-03-0.729D-03 0.482D-02 0.201D-01 0.608D-01 0.238D+00
 Coeff:      0.677D+00
 Gap=     0.247 Goal=   None    Shift=    0.000
 RMSDP=6.59D-06 MaxDP=3.16D-04 DE=-2.81D-05 OVMax= 1.92D-04

 Cycle   8  Pass 1  IDiag  1:
 RMSU=  3.60D-06    CP:  1.00D+00  6.17D-01  5.84D-01  8.00D-01  5.43D-01
                    CP:  7.04D-01  7.85D-01
 E= -1290.40975783306     Delta-E=       -0.000001266731 Rises=F Damp=F
 DIIS: error= 1.46D-05 at cycle   8 NSaved=   8.
 NSaved= 8 IEnMin= 8 EnMin= -1290.40975783306     IErMin= 8 ErrMin= 1.46D-05
 ErrMax= 1.46D-05  0.00D+00 EMaxC= 1.00D-01 BMatC= 2.00D-07 BMatP= 1.67D-06
 IDIUse=1 WtCom= 1.00D+00 WtEn= 0.00D+00
 Coeff-Com: -0.109D-03-0.458D-03 0.113D-02 0.388D-02 0.214D-01 0.993D-01
 Coeff-Com:  0.363D+00 0.511D+00
 Coeff:     -0.109D-03-0.458D-03 0.113D-02 0.388D-02 0.214D-01 0.993D-01
 Coeff:      0.363D+00 0.511D+00
 Gap=     0.247 Goal=   None    Shift=    0.000
 RMSDP=2.08D-06 MaxDP=6.39D-05 DE=-1.27D-06 OVMax= 7.85D-05

 Cycle   9  Pass 1  IDiag  1:
 RMSU=  1.41D-06    CP:  1.00D+00  6.17D-01  5.84D-01  8.00D-01  5.44D-01
                    CP:  7.06D-01  7.90D-01  6.04D-01
 E= -1290.40975796741     Delta-E=       -0.000000134352 Rises=F Damp=F
 DIIS: error= 4.95D-06 at cycle   9 NSaved=   9.
 NSaved= 9 IEnMin= 9 EnMin= -1290.40975796741     IErMin= 9 ErrMin= 4.95D-06
 ErrMax= 4.95D-06  0.00D+00 EMaxC= 1.00D-01 BMatC= 2.07D-08 BMatP= 2.00D-07
 IDIUse=1 WtCom= 1.00D+00 WtEn= 0.00D+00
 Coeff-Com: -0.217D-05-0.113D-03-0.194D-05-0.614D-03 0.320D-02 0.187D-01
 Coeff-Com:  0.919D-01 0.275D+00 0.612D+00
 Coeff:     -0.217D-05-0.113D-03-0.194D-05-0.614D-03 0.320D-02 0.187D-01
 Coeff:      0.919D-01 0.275D+00 0.612D+00
 Gap=     0.247 Goal=   None    Shift=    0.000
 RMSDP=7.01D-07 MaxDP=3.11D-05 DE=-1.34D-07 OVMax= 2.98D-05

 Cycle  10  Pass 1  IDiag  1:
 RMSU=  4.10D-07    CP:  1.00D+00  6.17D-01  5.84D-01  8.00D-01  5.45D-01
                    CP:  7.06D-01  7.98D-01  6.90D-01  6.97D-01
 E= -1290.40975798194     Delta-E=       -0.000000014529 Rises=F Damp=F
 DIIS: error= 1.72D-06 at cycle  10 NSaved=  10.
 NSaved=10 IEnMin=10 EnMin= -1290.40975798194     IErMin=10 ErrMin= 1.72D-06
 ErrMax= 1.72D-06  0.00D+00 EMaxC= 1.00D-01 BMatC= 2.07D-09 BMatP= 2.07D-08
 IDIUse=1 WtCom= 1.00D+00 WtEn= 0.00D+00
 Coeff-Com:  0.101D-05-0.380D-04-0.574D-04-0.490D-03 0.796D-03 0.572D-02
 Coeff-Com:  0.324D-01 0.128D+00 0.350D+00 0.483D+00
 Coeff:      0.101D-05-0.380D-04-0.574D-04-0.490D-03 0.796D-03 0.572D-02
 Coeff:      0.324D-01 0.128D+00 0.350D+00 0.483D+00
 Gap=     0.247 Goal=   None    Shift=    0.000
 RMSDP=2.20D-07 MaxDP=7.44D-06 DE=-1.45D-08 OVMax= 9.97D-06

 Cycle  11  Pass 1  IDiag  1:
 RMSU=  1.40D-07    CP:  1.00D+00  6.17D-01  5.84D-01  8.00D-01  5.45D-01
                    CP:  7.05D-01  8.00D-01  6.89D-01  7.48D-01  6.42D-01
 E= -1290.40975798335     Delta-E=       -0.000000001407 Rises=F Damp=F
 DIIS: error= 5.76D-07 at cycle  11 NSaved=  11.
 NSaved=11 IEnMin=11 EnMin= -1290.40975798335     IErMin=11 ErrMin= 5.76D-07
 ErrMax= 5.76D-07  0.00D+00 EMaxC= 1.00D-01 BMatC= 2.18D-10 BMatP= 2.07D-09
 IDIUse=1 WtCom= 1.00D+00 WtEn= 0.00D+00
 Coeff-Com: -0.117D-05 0.326D-05-0.470D-04-0.168D-03-0.298D-03-0.824D-03
 Coeff-Com: -0.183D-02 0.143D-01 0.691D-01 0.256D+00 0.664D+00
 Coeff:     -0.117D-05 0.326D-05-0.470D-04-0.168D-03-0.298D-03-0.824D-03
 Coeff:     -0.183D-02 0.143D-01 0.691D-01 0.256D+00 0.664D+00
 Gap=     0.247 Goal=   None    Shift=    0.000
 RMSDP=6.80D-08 MaxDP=3.19D-06 DE=-1.41D-09 OVMax= 2.54D-06

 Cycle  12  Pass 1  IDiag  1:
 RMSU=  3.53D-08    CP:  1.00D+00  6.17D-01  5.84D-01  8.00D-01  5.45D-01
                    CP:  7.06D-01  7.99D-01  6.93D-01  7.54D-01  7.07D-01
                    CP:  6.96D-01
 E= -1290.40975798347     Delta-E=       -0.000000000124 Rises=F Damp=F
 DIIS: error= 1.44D-07 at cycle  12 NSaved=  12.
 NSaved=12 IEnMin=12 EnMin= -1290.40975798347     IErMin=12 ErrMin= 1.44D-07
 ErrMax= 1.44D-07  0.00D+00 EMaxC= 1.00D-01 BMatC= 1.57D-11 BMatP= 2.18D-10
 IDIUse=1 WtCom= 1.00D+00 WtEn= 0.00D+00
 Coeff-Com: -0.924D-06 0.390D-05-0.246D-04-0.698D-04-0.200D-03-0.651D-03
 Coeff-Com: -0.221D-02 0.194D-02 0.196D-01 0.105D+00 0.333D+00 0.544D+00
 Coeff:     -0.924D-06 0.390D-05-0.246D-04-0.698D-04-0.200D-03-0.651D-03
 Coeff:     -0.221D-02 0.194D-02 0.196D-01 0.105D+00 0.333D+00 0.544D+00
 Gap=     0.247 Goal=   None    Shift=    0.000
 RMSDP=1.91D-08 MaxDP=5.50D-07 DE=-1.24D-10 OVMax= 6.82D-07

 Cycle  13  Pass 1  IDiag  1:
 RMSU=  1.27D-08    CP:  1.00D+00  6.17D-01  5.84D-01  8.00D-01  5.45D-01
                    CP:  7.06D-01  7.99D-01  6.93D-01  7.56D-01  7.12D-01
                    CP:  7.40D-01  6.88D-01
 E= -1290.40975798351     Delta-E=       -0.000000000038 Rises=F Damp=F
 DIIS: error= 5.88D-08 at cycle  13 NSaved=  13.
 NSaved=13 IEnMin=13 EnMin= -1290.40975798351     IErMin=13 ErrMin= 5.88D-08
 ErrMax= 5.88D-08  0.00D+00 EMaxC= 1.00D-01 BMatC= 2.64D-12 BMatP= 1.57D-11
 IDIUse=1 WtCom= 1.00D+00 WtEn= 0.00D+00
 Coeff-Com: -0.580D-06 0.208D-05-0.909D-05-0.187D-04-0.794D-04-0.256D-03
 Coeff-Com: -0.100D-02-0.635D-03 0.241D-02 0.280D-01 0.108D+00 0.320D+00
 Coeff-Com:  0.543D+00
 Coeff:     -0.580D-06 0.208D-05-0.909D-05-0.187D-04-0.794D-04-0.256D-03
 Coeff:     -0.100D-02-0.635D-03 0.241D-02 0.280D-01 0.108D+00 0.320D+00
 Coeff:      0.543D+00
 Gap=     0.247 Goal=   None    Shift=    0.000
 RMSDP=6.37D-09 MaxDP=1.81D-07 DE=-3.77D-11 OVMax= 2.37D-07

 Error on total polarization charges =  0.00426
 SCF Done:  E(RB3LYP) =  -1290.40975798     A.U. after   13 cycles
            NFock= 13  Conv=0.64D-08     -V/T= 2.0065
 KE= 1.282061777525D+03 PE=-5.073406245206D+03 EE= 1.490266388601D+03
 Leave Link  502 at Thu Jan 21 20:18:33 2021, MaxMem=   536870912 cpu:             389.4 elap:              97.8
 (Enter /usr/local//g16/l601.exe)
 Copying SCF densities to generalized density rwf, IOpCl= 0 IROHF=0.

 **********************************************************************

            Population analysis using the SCF density.

 **********************************************************************

 Orbital symmetries:
       Occupied  (A) (A) (A) (A) (A) (A) (A) (A) (A) (A) (A) (A)
                 (A) (A) (A) (A) (A) (A) (A) (A) (A) (A) (A) (A)
                 (A) (A) (A) (A) (A) (A) (A) (A) (A) (A) (A) (A)
                 (A) (A) (A) (A) (A) (A) (A) (A) (A) (A) (A) (A)
                 (A) (A) (A) (A) (A)
       Virtual   (A) (A) (A) (A) (A) (A) (A) (A) (A) (A) (A) (A)
                 (A) (A) (A) (A) (A) (A) (A) (A) (A) (A) (A) (A)
                 (A) (A) (A) (A) (A) (A) (A) (A) (A) (A) (A) (A)
                 (A) (A) (A) (A) (A) (A) (A) (A) (A) (A) (A) (A)
                 (A) (A) (A) (A) (A) (A) (A) (A) (A) (A) (A) (A)
                 (A) (A) (A) (A) (A) (A) (A) (A) (A) (A) (A) (A)
                 (A) (A) (A) (A) (A) (A) (A) (A) (A) (A) (A) (A)
                 (A) (A) (A) (A) (A) (A) (A) (A) (A) (A) (A) (A)
                 (A) (A) (A) (A) (A) (A) (A) (A) (A) (A) (A) (A)
                 (A) (A) (A) (A) (A) (A) (A) (A) (A) (A) (A) (A)
                 (A) (A) (A) (A) (A) (A) (A) (A) (A) (A) (A) (A)
                 (A) (A) (A) (A) (A) (A) (A) (A) (A) (A) (A) (A)
                 (A) (A) (A) (A) (A) (A) (A) (A) (A) (A) (A) (A)
                 (A) (A) (A) (A)
 The electronic state is 1-A.
 Alpha  occ. eigenvalues --  -77.24655 -77.24530 -19.19582 -19.19511 -19.19307
 Alpha  occ. eigenvalues --  -19.19231 -19.19226 -19.11823 -19.11780 -10.31063
 Alpha  occ. eigenvalues --  -10.21575  -6.69455  -6.69340  -4.85873  -4.85766
 Alpha  occ. eigenvalues --   -4.85737  -4.85619  -4.85604  -4.85480  -1.08048
 Alpha  occ. eigenvalues --   -1.06045  -1.05815  -1.03022  -1.02509  -0.96783
 Alpha  occ. eigenvalues --   -0.96430  -0.80942  -0.69505  -0.65194  -0.60350
 Alpha  occ. eigenvalues --   -0.56549  -0.54642  -0.54399  -0.50653  -0.47619
 Alpha  occ. eigenvalues --   -0.46267  -0.45943  -0.42668  -0.41574  -0.40973
 Alpha  occ. eigenvalues --   -0.40763  -0.40364  -0.39445  -0.37605  -0.36297
 Alpha  occ. eigenvalues --   -0.35704  -0.35330  -0.33831  -0.33065  -0.30215
 Alpha  occ. eigenvalues --   -0.29276  -0.29246  -0.27922
 Alpha virt. eigenvalues --   -0.03242   0.00404   0.02305   0.04326   0.07722
 Alpha virt. eigenvalues --    0.09558   0.10169   0.11454   0.12428   0.12524
 Alpha virt. eigenvalues --    0.13413   0.14062   0.14463   0.15150   0.16485
 Alpha virt. eigenvalues --    0.18689   0.21314   0.23708   0.32409   0.33801
 Alpha virt. eigenvalues --    0.36122   0.37029   0.40098   0.41788   0.42737
 Alpha virt. eigenvalues --    0.43656   0.47563   0.51692   0.54313   0.55336
 Alpha virt. eigenvalues --    0.58605   0.64227   0.72004   0.72456   0.74475
 Alpha virt. eigenvalues --    0.75559   0.76766   0.77456   0.77777   0.78105
 Alpha virt. eigenvalues --    0.79966   0.81770   0.83418   0.83965   0.85527
 Alpha virt. eigenvalues --    0.86071   0.87051   0.87368   0.89130   0.90126
 Alpha virt. eigenvalues --    0.90903   0.91853   0.94420   0.97013   0.98086
 Alpha virt. eigenvalues --    0.99410   1.00034   1.01863   1.02277   1.04069
 Alpha virt. eigenvalues --    1.04812   1.08649   1.10091   1.12162   1.13266
 Alpha virt. eigenvalues --    1.16233   1.16785   1.18492   1.19550   1.20785
 Alpha virt. eigenvalues --    1.27247   1.32827   1.33546   1.36160   1.39572
 Alpha virt. eigenvalues --    1.42814   1.43710   1.45945   1.47593   1.53905
 Alpha virt. eigenvalues --    1.55307   1.57037   1.57456   1.60444   1.65364
 Alpha virt. eigenvalues --    1.67235   1.68391   1.71210   1.72590   1.73488
 Alpha virt. eigenvalues --    1.74766   1.77688   1.79666   1.80270   1.82415
 Alpha virt. eigenvalues --    1.83608   1.85344   1.86898   1.87726   1.91060
 Alpha virt. eigenvalues --    1.96247   1.98762   2.00793   2.01290   2.01994
 Alpha virt. eigenvalues --    2.03361   2.05862   2.08501   2.10743   2.14476
 Alpha virt. eigenvalues --    2.16041   2.18105   2.25734   2.29446   2.31336
 Alpha virt. eigenvalues --    2.31811   2.33753   2.37914   2.38140   2.39126
 Alpha virt. eigenvalues --    2.42162   2.42338   2.48704   2.50525   2.51566
 Alpha virt. eigenvalues --    2.62101   2.62294   2.62998   2.63152   2.63892
 Alpha virt. eigenvalues --    2.66769   2.67268   2.67799   2.68005   2.69367
 Alpha virt. eigenvalues --    2.71539   2.80950   2.82158   2.82573   2.90225
 Alpha virt. eigenvalues --    2.96445   3.13973   3.34825   3.35867   3.37562
 Alpha virt. eigenvalues --    3.38217   3.38599   3.38763   3.43006   3.51997
 Alpha virt. eigenvalues --    3.55299   3.77708   3.88030   3.95085   4.00948
 Alpha virt. eigenvalues --    4.05053   4.13297   4.19093   4.33802   4.56063
     Molecular Orbital Coefficients:
                           1         2         3         4         5
                           O         O         O         O         O
     Eigenvalues --   -77.24655 -77.24530 -19.19582 -19.19511 -19.19307
   1 1   C  1S         -0.00004  -0.00004  -0.00004  -0.00002   0.00000
   2        2S         -0.00003  -0.00003  -0.00023  -0.00014   0.00020
   3        2PX        -0.00002   0.00003   0.00000   0.00004  -0.00001
   4        2PY         0.00001   0.00000   0.00004   0.00002   0.00016
   5        2PZ        -0.00001  -0.00001   0.00000   0.00004  -0.00031
   6        3S          0.00110   0.00109   0.00131   0.00068  -0.00156
   7        3PX        -0.00047   0.00032  -0.00057   0.00025   0.00012
   8        3PY        -0.00019  -0.00027  -0.00065  -0.00065  -0.00058
   9        3PZ         0.00007   0.00002  -0.00089  -0.00032   0.00088
  10        4XX        -0.00017  -0.00017   0.00001   0.00006   0.00004
  11        4YY        -0.00012  -0.00012  -0.00006  -0.00004   0.00007
  12        4ZZ        -0.00008  -0.00008  -0.00001  -0.00005   0.00023
  13        4XY        -0.00006   0.00007   0.00003  -0.00002  -0.00001
  14        4XZ         0.00002  -0.00002   0.00002   0.00000  -0.00000
  15        4YZ         0.00001   0.00000  -0.00003  -0.00001  -0.00011
  16 2   C  1S         -0.00001  -0.00002  -0.00003  -0.00004   0.00001
  17        2S         -0.00003  -0.00005  -0.00011  -0.00016   0.00009
  18        2PX         0.00002  -0.00002   0.00003  -0.00004  -0.00001
  19        2PY         0.00004   0.00004   0.00003   0.00003   0.00001
  20        2PZ         0.00002   0.00002   0.00001  -0.00002  -0.00010
  21        3S         -0.00006   0.00009   0.00075   0.00097   0.00026
  22        3PX        -0.00000   0.00001  -0.00001   0.00035   0.00004
  23        3PY         0.00017   0.00011  -0.00054  -0.00048  -0.00026
  24        3PZ         0.00008   0.00008  -0.00010  -0.00012   0.00028
  25        4XX        -0.00001  -0.00002  -0.00007  -0.00005   0.00002
  26        4YY        -0.00004  -0.00005  -0.00003  -0.00004   0.00001
  27        4ZZ        -0.00003  -0.00004  -0.00005  -0.00005  -0.00004
  28        4XY         0.00000  -0.00000  -0.00001   0.00000   0.00000
  29        4XZ        -0.00002   0.00002  -0.00000  -0.00001  -0.00000
  30        4YZ        -0.00000  -0.00000   0.00003   0.00003  -0.00000
  31 3   H  1S          0.00001   0.00000  -0.00003  -0.00007  -0.00004
  32        2S         -0.00014  -0.00017  -0.00013  -0.00007  -0.00026
  33        3PX         0.00002  -0.00002   0.00001  -0.00002  -0.00000
  34        3PY         0.00002   0.00003   0.00002   0.00002   0.00002
  35        3PZ         0.00001   0.00002   0.00000   0.00000   0.00002
  36 4   H  1S         -0.00001   0.00000  -0.00000  -0.00004   0.00004
  37        2S          0.00000  -0.00019   0.00011  -0.00002   0.00009
  38        3PX         0.00000  -0.00001  -0.00002   0.00001  -0.00000
  39        3PY        -0.00001   0.00004   0.00000  -0.00000  -0.00000
  40        3PZ        -0.00001   0.00001   0.00001  -0.00002  -0.00005
  41 5   H  1S          0.00000  -0.00002  -0.00005   0.00001   0.00005
  42        2S         -0.00018   0.00001   0.00027   0.00019   0.00010
  43        3PX         0.00001   0.00000   0.00002   0.00002   0.00000
  44        3PY         0.00003  -0.00001  -0.00001  -0.00001  -0.00001
  45        3PZ         0.00001  -0.00001   0.00000   0.00000  -0.00005
  46 6   O  1S          0.00000  -0.00000  -0.00076  -0.00023   0.99277
  47        2S          0.00001  -0.00000   0.00016  -0.00010   0.02598
  48        2PX         0.00000   0.00000  -0.00002  -0.00004  -0.00001
  49        2PY         0.00002   0.00002  -0.00002   0.00002  -0.00107
  50        2PZ        -0.00001  -0.00001   0.00001  -0.00002   0.00017
  51        3S         -0.00020  -0.00015  -0.00109   0.00020   0.01175
  52        3PX         0.00008  -0.00009   0.00001   0.00020   0.00003
  53        3PY        -0.00001  -0.00002   0.00029   0.00003  -0.00015
  54        3PZ        -0.00014  -0.00014  -0.00020   0.00014   0.00037
  55        4XX         0.00000  -0.00001   0.00020  -0.00001  -0.00801
  56        4YY         0.00001   0.00001   0.00012  -0.00009  -0.00791
  57        4ZZ        -0.00001  -0.00001   0.00012  -0.00006  -0.00802
  58        4XY         0.00004  -0.00004  -0.00000  -0.00003  -0.00000
  59        4XZ         0.00001  -0.00001   0.00000   0.00002   0.00000
  60        4YZ         0.00000   0.00000   0.00001  -0.00001   0.00013
  61 7   H  1S         -0.00003  -0.00003   0.00010  -0.00004   0.00023
  62        2S         -0.00019  -0.00020   0.00026   0.00035  -0.00129
  63        3PX         0.00002  -0.00002  -0.00005   0.00001   0.00000
  64        3PY         0.00002   0.00001  -0.00001   0.00003  -0.00016
  65        3PZ        -0.00004  -0.00004   0.00003   0.00003  -0.00020
  66 8   P  1S         -0.00094   0.99625   0.00000   0.00001   0.00000
  67        2S         -0.00003   0.01417   0.00000   0.00003   0.00003
  68        2PX        -0.00001   0.00000  -0.00001  -0.00005  -0.00000
  69        2PY         0.00001   0.00000  -0.00000  -0.00005  -0.00001
  70        2PZ        -0.00001  -0.00004  -0.00001   0.00004  -0.00000
  71        3S          0.00004  -0.02720   0.00003   0.00009   0.00023
  72        3PX         0.00012   0.00011   0.00005  -0.00003  -0.00002
  73        3PY        -0.00008  -0.00007   0.00001   0.00019   0.00012
  74        3PZ         0.00006   0.00004   0.00008  -0.00014  -0.00000
  75        4S          0.00012   0.00312  -0.00020  -0.00268  -0.00046
  76        4PX        -0.00003  -0.00027   0.00002  -0.00052   0.00015
  77        4PY         0.00010  -0.00004  -0.00003  -0.00158  -0.00032
  78        4PZ         0.00001  -0.00006  -0.00008   0.00103   0.00004
  79        5XX        -0.00009   0.00938  -0.00004   0.00020  -0.00004
  80        5YY        -0.00003   0.00942   0.00003   0.00013   0.00000
  81        5ZZ        -0.00004   0.00948  -0.00004   0.00007  -0.00004
  82        5XY         0.00003   0.00002   0.00000   0.00011   0.00000
  83        5XZ        -0.00001  -0.00000  -0.00005  -0.00009  -0.00001
  84        5YZ        -0.00000  -0.00001   0.00002  -0.00007   0.00001
  85 9   P  1S          0.99625   0.00094   0.00001   0.00000   0.00000
  86        2S          0.01418   0.00001   0.00002   0.00002   0.00000
  87        2PX         0.00001   0.00001   0.00004   0.00000   0.00001
  88        2PY        -0.00001  -0.00000  -0.00002  -0.00000  -0.00001
  89        2PZ        -0.00004  -0.00001   0.00006  -0.00000   0.00000
  90        3S         -0.02714   0.00009   0.00011   0.00011   0.00009
  91        3PX        -0.00010  -0.00012   0.00001   0.00001  -0.00001
  92        3PY        -0.00007   0.00000   0.00004   0.00001   0.00010
  93        3PZ         0.00002   0.00005  -0.00012   0.00002  -0.00007
  94        4S          0.00276  -0.00048  -0.00291  -0.00061   0.00020
  95        4PX         0.00012  -0.00023  -0.00001  -0.00039  -0.00005
  96        4PY        -0.00005   0.00015  -0.00076   0.00017  -0.00018
  97        4PZ        -0.00010  -0.00002   0.00151  -0.00002  -0.00024
  98        5XX         0.00939  -0.00007   0.00012  -0.00001  -0.00002
  99        5YY         0.00941  -0.00005   0.00001   0.00001   0.00003
 100        5ZZ         0.00946  -0.00005   0.00016   0.00001  -0.00003
 101        5XY        -0.00002  -0.00001  -0.00006  -0.00001  -0.00003
 102        5XZ        -0.00001   0.00001   0.00020   0.00003   0.00003
 103        5YZ         0.00001  -0.00000  -0.00005   0.00000   0.00001
 104 10  O  1S          0.00001  -0.00001   0.00005  -0.00054   0.00130
 105        2S          0.00005  -0.00001  -0.00000  -0.00008  -0.00002
 106        2PX        -0.00002  -0.00002   0.00001   0.00000   0.00001
 107        2PY         0.00001  -0.00002   0.00000  -0.00003  -0.00003
 108        2PZ        -0.00000  -0.00002   0.00000   0.00006   0.00002
 109        3S         -0.00019   0.00055   0.00003   0.00028   0.00024
 110        3PX         0.00011   0.00023  -0.00004  -0.00001  -0.00007
 111        3PY        -0.00007   0.00017   0.00002   0.00034   0.00014
 112        3PZ        -0.00002   0.00018   0.00000  -0.00020  -0.00006
 113        4XX         0.00003   0.00004  -0.00001  -0.00006  -0.00010
 114        4YY         0.00004  -0.00016  -0.00001   0.00003  -0.00005
 115        4ZZ         0.00004  -0.00009  -0.00000  -0.00004  -0.00007
 116        4XY         0.00001  -0.00006  -0.00000   0.00003   0.00001
 117        4XZ         0.00001  -0.00000   0.00000   0.00000   0.00000
 118        4YZ        -0.00001  -0.00010   0.00000  -0.00001  -0.00001
 119 11  H  1S         -0.00003  -0.00012   0.00001   0.00006   0.00005
 120        2S         -0.00000  -0.00023   0.00002   0.00005  -0.00004
 121        3PX         0.00001   0.00002  -0.00000  -0.00002  -0.00003
 122        3PY        -0.00000  -0.00001   0.00001   0.00002   0.00000
 123        3PZ         0.00000   0.00000   0.00000   0.00001   0.00000
 124 12  O  1S          0.00000  -0.00002   0.00012   0.99274   0.00021
 125        2S          0.00001  -0.00005  -0.00001   0.02577  -0.00005
 126        2PX         0.00000   0.00001   0.00000   0.00025   0.00000
 127        2PY         0.00000   0.00003  -0.00000  -0.00066  -0.00001
 128        2PZ         0.00000  -0.00003  -0.00001   0.00065  -0.00001
 129        3S         -0.00004   0.00076   0.00006   0.01230   0.00026
 130        3PX        -0.00000  -0.00012  -0.00003  -0.00062  -0.00003
 131        3PY         0.00000  -0.00028   0.00001  -0.00006   0.00002
 132        3PZ        -0.00001   0.00025   0.00002   0.00003   0.00005
 133        4XX         0.00000  -0.00013  -0.00001  -0.00810  -0.00001
 134        4YY         0.00000  -0.00009  -0.00001  -0.00814  -0.00004
 135        4ZZ        -0.00000  -0.00005  -0.00001  -0.00812  -0.00002
 136        4XY         0.00000  -0.00012  -0.00000  -0.00003  -0.00002
 137        4XZ        -0.00000   0.00010  -0.00000   0.00003   0.00002
 138        4YZ         0.00000   0.00001   0.00000   0.00001   0.00000
 139 13  H  1S          0.00001  -0.00015   0.00000   0.00034  -0.00004
 140        2S         -0.00000  -0.00019   0.00001  -0.00094  -0.00003
 141        3PX        -0.00000   0.00002  -0.00000   0.00015   0.00002
 142        3PY         0.00000  -0.00001   0.00000  -0.00002  -0.00001
 143        3PZ        -0.00000   0.00001  -0.00000   0.00004   0.00000
 144 14  O  1S         -0.00002  -0.00001  -0.00037  -0.00007   0.00030
 145        2S         -0.00004  -0.00004  -0.00012  -0.00005   0.00004
 146        2PX         0.00002   0.00000  -0.00001   0.00002  -0.00000
 147        2PY        -0.00003  -0.00003  -0.00001  -0.00001  -0.00000
 148        2PZ        -0.00001  -0.00000   0.00005   0.00001  -0.00000
 149        3S          0.00070   0.00022   0.00051   0.00028  -0.00015
 150        3PX        -0.00023  -0.00004   0.00003  -0.00008   0.00001
 151        3PY         0.00025   0.00014   0.00027   0.00008  -0.00004
 152        3PZ         0.00006   0.00001  -0.00029  -0.00002   0.00004
 153        4XX        -0.00001  -0.00008  -0.00009  -0.00003   0.00001
 154        4YY        -0.00022  -0.00004  -0.00002  -0.00002   0.00001
 155        4ZZ        -0.00007  -0.00005  -0.00005  -0.00002   0.00002
 156        4XY         0.00008  -0.00002  -0.00003   0.00001   0.00001
 157        4XZ        -0.00001   0.00000   0.00000  -0.00001  -0.00001
 158        4YZ        -0.00002   0.00001  -0.00003  -0.00000   0.00000
 159 15  H  1S         -0.00010   0.00003   0.00005  -0.00003   0.00002
 160        2S         -0.00021   0.00006   0.00006   0.00002  -0.00008
 161        3PX        -0.00001   0.00003   0.00002  -0.00000  -0.00000
 162        3PY        -0.00001   0.00001   0.00003  -0.00001  -0.00001
 163        3PZ         0.00000  -0.00000   0.00000   0.00001  -0.00000
 164 16  O  1S         -0.00002  -0.00000   0.99275  -0.00012   0.00084
 165        2S         -0.00004  -0.00002   0.02583  -0.00001   0.00011
 166        2PX        -0.00001  -0.00001  -0.00041  -0.00000   0.00003
 167        2PY         0.00002   0.00001  -0.00027   0.00000   0.00000
 168        2PZ        -0.00004   0.00000   0.00081   0.00000   0.00001
 169        3S          0.00074   0.00007   0.01205   0.00003  -0.00037
 170        3PX         0.00006   0.00005   0.00049   0.00002  -0.00021
 171        3PY        -0.00012  -0.00003  -0.00001  -0.00003   0.00002
 172        3PZ         0.00037  -0.00001   0.00018  -0.00001  -0.00001
 173        4XX        -0.00008  -0.00001  -0.00804  -0.00000   0.00012
 174        4YY        -0.00007  -0.00001  -0.00809  -0.00000   0.00008
 175        4ZZ        -0.00012  -0.00002  -0.00810  -0.00001   0.00009
 176        4XY         0.00004  -0.00001   0.00001  -0.00000   0.00001
 177        4XZ        -0.00015   0.00001  -0.00004   0.00000  -0.00004
 178        4YZ         0.00002  -0.00000   0.00002  -0.00000   0.00001
 179 17  H  1S         -0.00013   0.00001   0.00032   0.00001  -0.00007
 180        2S         -0.00021  -0.00002  -0.00100  -0.00006  -0.00008
 181        3PX        -0.00003   0.00000  -0.00016  -0.00000  -0.00005
 182        3PY        -0.00000   0.00000  -0.00001   0.00000  -0.00001
 183        3PZ         0.00001  -0.00000   0.00002  -0.00000   0.00003
 184 18  O  1S          0.00001   0.00000  -0.00003  -0.00001   0.00000
 185        2S         -0.00007   0.00000  -0.00002  -0.00003  -0.00002
 186        2PX        -0.00006   0.00001   0.00003  -0.00002   0.00000
 187        2PY         0.00003   0.00000  -0.00004   0.00001  -0.00001
 188        2PZ         0.00017  -0.00001   0.00001  -0.00000  -0.00000
 189        3S          0.00063  -0.00001   0.00017   0.00014   0.00012
 190        3PX         0.00011   0.00000  -0.00006   0.00008   0.00000
 191        3PY        -0.00007  -0.00002   0.00017  -0.00005   0.00001
 192        3PZ        -0.00039   0.00003  -0.00026  -0.00001   0.00001
 193        4XX         0.00000   0.00001  -0.00002  -0.00002  -0.00002
 194        4YY         0.00003   0.00003   0.00001  -0.00001  -0.00001
 195        4ZZ        -0.00017   0.00001   0.00003  -0.00002  -0.00002
 196        4XY         0.00002   0.00000   0.00002  -0.00000  -0.00001
 197        4XZ         0.00011   0.00000  -0.00002  -0.00000   0.00000
 198        4YZ        -0.00005   0.00000  -0.00000   0.00001   0.00001
 199 19  O  1S          0.00002   0.00002  -0.00001  -0.00003   0.00001
 200        2S          0.00008  -0.00001  -0.00004  -0.00000   0.00001
 201        2PX        -0.00002   0.00000  -0.00000  -0.00002  -0.00001
 202        2PY         0.00001  -0.00004  -0.00001  -0.00005  -0.00001
 203        2PZ        -0.00001   0.00017   0.00000  -0.00001  -0.00001
 204        3S         -0.00032   0.00035   0.00018   0.00007  -0.00002
 205        3PX         0.00010   0.00003   0.00001   0.00012   0.00001
 206        3PY        -0.00003   0.00008   0.00003   0.00032   0.00004
 207        3PZ         0.00008  -0.00035  -0.00004  -0.00011   0.00002
 208        4XX         0.00004   0.00008  -0.00003  -0.00000   0.00001
 209        4YY         0.00008   0.00007  -0.00002   0.00003   0.00002
 210        4ZZ         0.00005  -0.00016  -0.00002   0.00003   0.00002
 211        4XY         0.00000   0.00001  -0.00000  -0.00002   0.00001
 212        4XZ        -0.00002  -0.00004  -0.00000  -0.00000  -0.00001
 213        4YZ         0.00001   0.00006  -0.00000  -0.00003   0.00000
                           6         7         8         9        10
                           O         O         O         O         O
     Eigenvalues --   -19.19231 -19.19226 -19.11823 -19.11780 -10.31063
   1 1   C  1S         -0.00005  -0.00002  -0.00003  -0.00003   0.99324
   2        2S         -0.00024  -0.00013  -0.00016  -0.00017   0.05025
   3        2PX        -0.00001  -0.00001   0.00000   0.00004  -0.00005
   4        2PY         0.00004  -0.00002   0.00001  -0.00004  -0.00015
   5        2PZ         0.00004   0.00001  -0.00002  -0.00004  -0.00049
   6        3S          0.00136   0.00081   0.00101   0.00115  -0.02141
   7        3PX        -0.00025   0.00058   0.00041  -0.00079   0.00025
   8        3PY        -0.00110  -0.00033  -0.00039   0.00057  -0.00026
   9        3PZ         0.00024   0.00041   0.00004   0.00051   0.00001
  10        4XX        -0.00004  -0.00001  -0.00001  -0.00002  -0.00867
  11        4YY        -0.00004   0.00003  -0.00000  -0.00001  -0.00863
  12        4ZZ        -0.00010  -0.00006  -0.00001  -0.00000  -0.00847
  13        4XY         0.00004  -0.00005  -0.00003   0.00003   0.00000
  14        4XZ        -0.00000   0.00001   0.00000  -0.00001   0.00000
  15        4YZ        -0.00000   0.00003  -0.00003  -0.00000   0.00002
  16 2   C  1S         -0.00000   0.00001  -0.00002   0.00003   0.00123
  17        2S         -0.00002   0.00005  -0.00009   0.00011  -0.00031
  18        2PX         0.00000   0.00000  -0.00005  -0.00001   0.00002
  19        2PY         0.00000  -0.00001   0.00001  -0.00001  -0.00002
  20        2PZ        -0.00001   0.00001   0.00001   0.00005   0.00005
  21        3S          0.00026  -0.00028   0.00029  -0.00107   0.00553
  22        3PX        -0.00001  -0.00004   0.00031   0.00014  -0.00024
  23        3PY         0.00002   0.00033  -0.00023   0.00035  -0.00122
  24        3PZ        -0.00027  -0.00006   0.00006   0.00023  -0.00175
  25        4XX        -0.00000   0.00003  -0.00002   0.00007  -0.00012
  26        4YY        -0.00002  -0.00000  -0.00001   0.00004  -0.00031
  27        4ZZ         0.00002   0.00002  -0.00001   0.00004  -0.00025
  28        4XY         0.00000  -0.00001  -0.00001   0.00002  -0.00001
  29        4XZ        -0.00000   0.00001   0.00001  -0.00003   0.00001
  30        4YZ         0.00002  -0.00001  -0.00001  -0.00003  -0.00014
  31 3   H  1S         -0.00000   0.00004   0.00002   0.00013  -0.00012
  32        2S          0.00018   0.00005  -0.00011  -0.00005  -0.00015
  33        3PX        -0.00000   0.00001  -0.00000  -0.00002   0.00001
  34        3PY        -0.00000  -0.00000  -0.00002  -0.00003   0.00001
  35        3PZ        -0.00001  -0.00000   0.00002   0.00002  -0.00003
  36 4   H  1S         -0.00000   0.00002  -0.00007   0.00002  -0.00019
  37        2S         -0.00004  -0.00012   0.00007  -0.00004  -0.00038
  38        3PX         0.00000   0.00001  -0.00001   0.00002   0.00000
  39        3PY        -0.00001  -0.00000  -0.00001   0.00000  -0.00003
  40        3PZ        -0.00000   0.00000   0.00000  -0.00001  -0.00000
  41 5   H  1S          0.00001  -0.00000   0.00003   0.00003  -0.00020
  42        2S         -0.00009  -0.00009   0.00019   0.00028  -0.00068
  43        3PX        -0.00000  -0.00001   0.00000  -0.00002  -0.00001
  44        3PY        -0.00000  -0.00001  -0.00001  -0.00005   0.00000
  45        3PZ         0.00000  -0.00001  -0.00000   0.00001  -0.00001
  46 6   O  1S         -0.00027  -0.00137   0.00002  -0.00001  -0.00017
  47        2S         -0.00008  -0.00023   0.00008   0.00002  -0.00049
  48        2PX         0.00002  -0.00003   0.00003  -0.00002   0.00001
  49        2PY         0.00003   0.00003  -0.00002  -0.00001   0.00004
  50        2PZ        -0.00004  -0.00002   0.00002   0.00001  -0.00010
  51        3S          0.00022   0.00086  -0.00032  -0.00004   0.00424
  52        3PX        -0.00005   0.00010  -0.00013   0.00013  -0.00006
  53        3PY         0.00008  -0.00019   0.00011  -0.00006  -0.00028
  54        3PZ         0.00031   0.00017  -0.00015  -0.00019   0.00076
  55        4XX        -0.00005  -0.00014   0.00006   0.00000  -0.00024
  56        4YY        -0.00009  -0.00011   0.00005   0.00002  -0.00035
  57        4ZZ        -0.00002  -0.00011   0.00005  -0.00002  -0.00078
  58        4XY         0.00002  -0.00004   0.00001  -0.00001   0.00001
  59        4XZ        -0.00000  -0.00000  -0.00002   0.00003  -0.00001
  60        4YZ        -0.00003  -0.00001   0.00002   0.00001   0.00022
  61 7   H  1S         -0.00001  -0.00003   0.00005   0.00002   0.00006
  62        2S          0.00048   0.00005  -0.00020  -0.00030  -0.00070
  63        3PX        -0.00001   0.00001   0.00000   0.00000   0.00001
  64        3PY         0.00003  -0.00002  -0.00002  -0.00002  -0.00002
  65        3PZ         0.00004   0.00000  -0.00002  -0.00002   0.00007
  66 8   P  1S         -0.00000   0.00001   0.00002  -0.00000   0.00001
  67        2S          0.00003   0.00003  -0.00002  -0.00006  -0.00006
  68        2PX        -0.00000   0.00002   0.00001  -0.00000   0.00002
  69        2PY         0.00001   0.00005  -0.00000   0.00001  -0.00002
  70        2PZ         0.00001   0.00005   0.00000   0.00001   0.00000
  71        3S          0.00004   0.00010   0.00108  -0.00023   0.00012
  72        3PX        -0.00002  -0.00014  -0.00008   0.00006  -0.00045
  73        3PY        -0.00012   0.00002  -0.00002  -0.00005   0.00039
  74        3PZ        -0.00013  -0.00013   0.00010  -0.00006   0.00001
  75        4S         -0.00084  -0.00295  -0.00433   0.00138   0.00435
  76        4PX         0.00048   0.00159   0.00059  -0.00077  -0.00185
  77        4PY         0.00041   0.00071   0.00034  -0.00004   0.00121
  78        4PZ         0.00003   0.00077  -0.00205   0.00019  -0.00075
  79        5XX         0.00006   0.00005  -0.00022  -0.00003  -0.00003
  80        5YY         0.00005   0.00022  -0.00025  -0.00003  -0.00000
  81        5ZZ        -0.00000   0.00012  -0.00013  -0.00002  -0.00001
  82        5XY         0.00008   0.00004   0.00001  -0.00001  -0.00007
  83        5XZ         0.00002   0.00003  -0.00001   0.00004   0.00001
  84        5YZ        -0.00002   0.00014  -0.00003  -0.00001  -0.00001
  85 9   P  1S          0.00000  -0.00000  -0.00000   0.00002   0.00001
  86        2S          0.00000  -0.00004  -0.00004  -0.00004  -0.00004
  87        2PX        -0.00001  -0.00001   0.00000  -0.00000  -0.00003
  88        2PY         0.00006   0.00001  -0.00000   0.00001  -0.00002
  89        2PZ         0.00001   0.00001  -0.00001   0.00000   0.00000
  90        3S         -0.00005  -0.00020  -0.00013   0.00097   0.00015
  91        3PX        -0.00000  -0.00001  -0.00005  -0.00003   0.00053
  92        3PY        -0.00002  -0.00003   0.00002  -0.00004   0.00036
  93        3PZ        -0.00005  -0.00000   0.00004   0.00011  -0.00002
  94        4S         -0.00247   0.00106   0.00053  -0.00385   0.00455
  95        4PX        -0.00131   0.00056   0.00031   0.00022   0.00155
  96        4PY         0.00064   0.00017  -0.00000  -0.00040   0.00155
[...]
     4  H   -0.000147  -0.003542   0.001724  -0.000040  -0.000007   0.009068
     5  H   -0.000157   0.001463  -0.003297  -0.000026   0.000001   0.000064
     6  O    0.287632   0.009868   0.011274  -0.003178  -0.000174  -0.000977
     7  H    0.376889  -0.007668  -0.004289   0.012404  -0.000260  -0.000121
     8  P   -0.007668  12.595435  -0.001388   0.279859  -0.013416   0.276966
     9  P   -0.004289  -0.001388  12.595568  -0.002085   0.000282  -0.000621
    10  O    0.012404   0.279859  -0.002085   8.095790   0.305095  -0.036958
    11  H   -0.000260  -0.013416   0.000282   0.305095   0.328759   0.001096
    12  O   -0.000121   0.276966  -0.000621  -0.036958   0.001096   8.092022
    13  H    0.000001  -0.009141  -0.000014   0.000937  -0.000036   0.303414
    14  O    0.008294   0.002607   0.275443   0.000613   0.000035  -0.000001
    15  H   -0.000182   0.000095  -0.012716   0.000059  -0.000004   0.000000
    16  O   -0.000162  -0.000513   0.275664  -0.000001   0.000000  -0.000000
    17  H    0.000001   0.000022  -0.009181   0.000000   0.000000   0.000000
    18  O    0.000010   0.000032   0.584949   0.000003   0.000000  -0.000001
    19  O    0.000010   0.579684   0.007088  -0.026207  -0.001131  -0.031675
              13         14         15         16         17         18
     1  C    0.001063  -0.044982   0.002301  -0.031722   0.001330  -0.033158
     2  C    0.000031   0.000818  -0.000037  -0.004960  -0.000119  -0.001756
     3  H   -0.000080   0.000007   0.000001  -0.000456  -0.000055   0.002376
     4  H   -0.000055  -0.000023   0.000001  -0.000006   0.000014  -0.000012
     5  H    0.000014  -0.000027  -0.000003   0.008515  -0.000049  -0.000334
     6  O    0.000010  -0.001660  -0.000186  -0.001352   0.000034   0.000311
     7  H    0.000001   0.008294  -0.000182  -0.000162   0.000001   0.000010
     8  P   -0.009141   0.002607   0.000095  -0.000513   0.000022   0.000032
     9  P   -0.000014   0.275443  -0.012716   0.275664  -0.009181   0.584949
    10  O    0.000937   0.000613   0.000059  -0.000001   0.000000   0.000003
    11  H   -0.000036   0.000035  -0.000004   0.000000   0.000000   0.000000
    12  O    0.303414  -0.000001   0.000000  -0.000000   0.000000  -0.000001
    13  H    0.331213   0.000000  -0.000000   0.000000  -0.000000   0.000000
    14  O    0.000000   8.098919   0.304451  -0.036213   0.000892  -0.025983
    15  H   -0.000000   0.304451   0.330534   0.000738  -0.000038  -0.001188
    16  O    0.000000  -0.036213   0.000738   8.095682   0.303401  -0.032381
    17  H   -0.000000   0.000892  -0.000038   0.303401   0.331872   0.000104
    18  O    0.000000  -0.025983  -0.001188  -0.032381   0.000104   8.091992
    19  O   -0.000083  -0.000148  -0.000001  -0.000001   0.000000  -0.000862
              19
     1  C   -0.034548
     2  C   -0.002257
     3  H    0.001662
     4  H   -0.000112
     5  H   -0.000035
     6  O    0.000317
     7  H    0.000010
     8  P    0.579684
     9  P    0.007088
    10  O   -0.026207
    11  H   -0.001131
    12  O   -0.031675
    13  H   -0.000083
    14  O   -0.000148
    15  H   -0.000001
    16  O   -0.000001
    17  H    0.000000
    18  O   -0.000862
    19  O    8.090319
 Mulliken charges:
               1
     1  C   -0.110777
     2  C   -0.355442
     3  H    0.149904
     4  H    0.144943
     5  H    0.143869
     6  O   -0.540687
     7  H    0.347239
     8  P    1.102863
     9  P    1.102965
    10  O   -0.582633
    11  H    0.377594
    12  O   -0.575110
    13  H    0.372728
    14  O   -0.583042
    15  H    0.376174
    16  O   -0.576234
    17  H    0.371771
    18  O   -0.584103
    19  O   -0.582020
 Sum of Mulliken charges =  -0.00000
 Mulliken charges with hydrogens summed into heavy atoms:
               1
     1  C   -0.110777
     2  C    0.083273
     6  O   -0.193448
     8  P    1.102863
     9  P    1.102965
    10  O   -0.205039
    12  O   -0.202382
    14  O   -0.206868
    16  O   -0.204463
    18  O   -0.584103
    19  O   -0.582020
 Electronic spatial extent (au):  <R**2>=           1983.8578
 Charge=             -0.0000 electrons
 Dipole moment (field-independent basis, Debye):
    X=              0.3104    Y=              1.8819    Z=             -3.5251  Tot=              4.0080
 Quadrupole moment (field-independent basis, Debye-Ang):
   XX=            -55.7901   YY=            -71.5656   ZZ=            -85.7033
   XY=              0.4498   XZ=              0.7008   YZ=             16.2515
 Traceless Quadrupole moment (field-independent basis, Debye-Ang):
   XX=             15.2296   YY=             -0.5459   ZZ=            -14.6836
   XY=              0.4498   XZ=              0.7008   YZ=             16.2515
 Octapole moment (field-independent basis, Debye-Ang**2):
  XXX=              0.6339  YYY=             -8.6475  ZZZ=            -34.6321  XYY=             -4.4291
  XXY=             -3.2910  XXZ=             -6.2638  XZZ=              7.0755  YZZ=              1.6869
  YYZ=             -4.7963  XYZ=              2.3894
 Hexadecapole moment (field-independent basis, Debye-Ang**3):
 XXXX=          -1040.3404 YYYY=           -498.2452 ZZZZ=           -454.4908 XXXY=            -12.0179
 XXXZ=              4.9703 YYYX=              9.0767 YYYZ=             35.1393 ZZZX=              2.2238
 ZZZY=             35.6021 XXYY=           -224.8093 XXZZ=           -306.1155 YYZZ=           -169.2124
 XXYZ=             91.5918 YYXZ=              1.3769 ZZXY=              2.9268
 N-N= 1.015635170225D+03 E-N=-5.083922851728D+03  KE= 1.282442549242D+03
 Orbital energies and kinetic energies (alpha):
                                 1                 2
   1         O               -77.233159        106.045366
   2         O               -77.231588        106.045361
   3         O               -19.198291         29.025055
   4         O               -19.197338         29.025178
   5         O               -19.196117         29.025131
   6         O               -19.194144         29.025161
   7         O               -19.178087         29.028112
   8         O               -19.126666         29.027862
   9         O               -19.125293         29.027758
  10         O               -10.280664         15.890540
  11         O               -10.199874         15.882912
  12         O                -6.682308         15.694071
  13         O                -6.680799         15.694065
  14         O                -4.846887         14.708695
  15         O                -4.845347         14.706697
  16         O                -4.845334         14.708718
  17         O                -4.843851         14.706982
  18         O                -4.843266         14.709458
  19         O                -4.841769         14.709314
  20         O                -1.093771          2.489737
  21         O                -1.087572          2.564119
  22         O                -1.048404          2.568625
  23         O                -1.041831          2.734735
  24         O                -1.040774          2.753090
  25         O                -0.976038          2.852453
  26         O                -0.972523          2.886989
  27         O                -0.785338          1.637035
  28         O                -0.681499          1.826218
  29         O                -0.659406          2.150141
  30         O                -0.599208          1.937677
  31         O                -0.575172          1.907204
  32         O                -0.560905          2.075517
  33         O                -0.536184          1.809775
  34         O                -0.508413          1.590599
  35         O                -0.474628          2.327756
  36         O                -0.470354          2.358218
  37         O                -0.438388          2.112036
  38         O                -0.431017          1.915125
  39         O                -0.423867          2.153957
  40         O                -0.414064          1.800357
  41         O                -0.403451          1.805560
  42         O                -0.402921          1.783731
  43         O                -0.389665          1.884589
  44         O                -0.379356          2.237189
  45         O                -0.374334          2.252411
  46         O                -0.371528          2.213288
  47         O                -0.352210          2.178089
  48         O                -0.350030          2.295939
  49         O                -0.324653          2.301670
  50         O                -0.309790          2.290140
  51         O                -0.307992          2.158571
  52         O                -0.304946          2.319018
  53         O                -0.273298          2.363283
  54         V                 0.027421          1.932900
  55         V                 0.037901          1.832744
  56         V                 0.050990          1.820793
  57         V                 0.055832          1.983401
  58         V                 0.082135          1.646571
  59         V                 0.106475          1.800382
  60         V                 0.113485          1.820842
  61         V                 0.119547          1.472951
  62         V                 0.127590          2.233781
  63         V                 0.129991          2.130110
  64         V                 0.141409          2.112751
  65         V                 0.150298          2.247354
  66         V                 0.159584          1.520039
  67         V                 0.183048          1.611440
  68         V                 0.193711          1.825002
  69         V                 0.203944          1.731301
  70         V                 0.217604          2.560378
  71         V                 0.246827          2.232094
  72         V                 0.324212          1.952777
  73         V                 0.342497          1.914719
  74         V                 0.362060          2.108786
  75         V                 0.375043          2.344039
  76         V                 0.392207          2.537170
  77         V                 0.408767          2.010626
  78         V                 0.418507          2.431402
  79         V                 0.427784          1.763512
  80         V                 0.488682          2.073634
  81         V                 0.534635          2.616682
  82         V                 0.559155          2.182655
  83         V                 0.569649          2.284295
  84         V                 0.586843          2.273140
  85         V                 0.641038          2.405330
  86         V                 0.705490          2.319339
  87         V                 0.734887          2.715013
  88         V                 0.740325          2.644645
  89         V                 0.745471          2.478604
  90         V                 0.759972          2.534138
  91         V                 0.769005          2.417444
  92         V                 0.779544          2.511903
  93         V                 0.790338          2.791141
  94         V                 0.807437          2.568755
  95         V                 0.832507          2.268901
  96         V                 0.851082          2.564135
  97         V                 0.858076          2.634704
  98         V                 0.864555          2.708478
  99         V                 0.873552          2.786076
 100         V                 0.889888          2.795003
 101         V                 0.893768          2.736810
 102         V                 0.913955          2.891842
 103         V                 0.921123          2.727547
 104         V                 0.942200          2.908989
 105         V                 0.947182          3.138840
 106         V                 0.971625          3.139637
 107         V                 0.979236          3.171883
 108         V                 0.987948          2.909549
 109         V                 1.000773          3.221240
 110         V                 1.012473          3.258696
 111         V                 1.021887          3.312605
 112         V                 1.037847          2.954954
 113         V                 1.044052          3.302600
 114         V                 1.069393          3.195237
 115         V                 1.099745          3.636633
 116         V                 1.112410          3.637842
 117         V                 1.134872          3.505333
 118         V                 1.140072          3.716020
 119         V                 1.166654          3.789842
 120         V                 1.177665          3.365366
 121         V                 1.192930          3.122829
 122         V                 1.198463          3.033743
 123         V                 1.226792          3.330859
 124         V                 1.275711          3.078800
 125         V                 1.292140          2.965689
 126         V                 1.343536          2.675213
 127         V                 1.371802          2.575039
 128         V                 1.396933          2.791556
 129         V                 1.425212          2.672835
 130         V                 1.447432          2.709519
 131         V                 1.478588          2.750671
 132         V                 1.539036          2.711662
 133         V                 1.541193          2.663261
 134         V                 1.556682          2.672734
 135         V                 1.558001          2.669225
 136         V                 1.572978          2.729085
 137         V                 1.585049          2.725423
 138         V                 1.635274          2.728965
 139         V                 1.648294          2.827595
 140         V                 1.665997          2.857142
 141         V                 1.691136          2.878266
 142         V                 1.702298          2.905542
 143         V                 1.724704          2.910727
 144         V                 1.761087          2.861971
 145         V                 1.813411          2.978042
 146         V                 1.817958          2.965495
 147         V                 1.829286          3.063322
 148         V                 1.839366          3.031768
 149         V                 1.850255          2.952575
 150         V                 1.858984          3.400971
 151         V                 1.874028          3.162234
 152         V                 1.888110          3.283426
 153         V                 1.926698          3.259439
 154         V                 1.955459          3.197575
 155         V                 1.965444          3.273768
 156         V                 2.002847          3.506684
 157         V                 2.031049          3.488591
 158         V                 2.040963          2.957446
 159         V                 2.055958          3.345277
 160         V                 2.088710          3.293748
 161         V                 2.099606          3.391339
 162         V                 2.137352          3.458669
 163         V                 2.149698          3.378652
 164         V                 2.187708          3.510892
 165         V                 2.223767          3.548781
 166         V                 2.295778          3.680498
 167         V                 2.300568          3.675662
 168         V                 2.328259          3.707067
 169         V                 2.332156          3.711816
 170         V                 2.381225          3.683860
 171         V                 2.393257          3.659329
 172         V                 2.412407          3.711995
 173         V                 2.421926          3.909672
 174         V                 2.468299          3.912000
 175         V                 2.481298          4.242013
 176         V                 2.491847          4.098033
 177         V                 2.601530          3.602678
 178         V                 2.602315          3.643237
 179         V                 2.610504          4.072374
 180         V                 2.611455          4.039216
 181         V                 2.613390          3.705070
 182         V                 2.622843          4.149500
 183         V                 2.642334          3.675912
 184         V                 2.675733          3.886873
 185         V                 2.693512          3.879102
 186         V                 2.706944          3.813776
 187         V                 2.725001          4.032539
 188         V                 2.730315          4.003257
 189         V                 2.778494          4.335156
 190         V                 2.808572          4.460816
 191         V                 2.826421          4.774964
 192         V                 2.865302          3.949642
 193         V                 2.919404          4.128985
 194         V                 2.991144          4.566177
 195         V                 3.212101          4.979885
 196         V                 3.331619          6.482822
 197         V                 3.347688          6.422545
 198         V                 3.349372          6.374823
 199         V                 3.360221          6.277694
 200         V                 3.421777          5.369880
 201         V                 3.432750          5.300019
 202         V                 3.453989          6.376612
 203         V                 3.503976          9.659834
 204         V                 3.551589         10.254897
 205         V                 3.834401          9.569474
 206         V                 3.877788          9.628160
 207         V                 3.908256         10.040546
 208         V                 4.004503         10.259751
 209         V                 4.060825         10.238508
 210         V                 4.233874         10.542635
 211         V                 4.267481         10.592656
 212         V                 4.362932         10.629108
 213         V                 4.575442         10.371315
 Total kinetic energy from orbitals= 1.282442549242D+03
 No NMR shielding tensors so no spin-rotation constants.
 Leave Link  601 at Thu Jan 21 20:59:18 2021, MaxMem=   536870912 cpu:               2.1 elap:               0.3
 (Enter /usr/local//g16/l9999.exe)

 Test job not archived.
 1\1\GINC-BATAGIN2\FOpt\RB3LYP\6-31G(d,p)\C2H8O7P2\ORISON\21-Jan-2021\0
 \\#P B3LYP/6-31G(d,p) # Opt SCRF=(Solvent=Water) # Gfinput IOP(6/7=3) 
 Pop=full Density Test # Units(Ang,Deg)\\Title Card Required\\0,1\C,-0.
 7691531452,0.7302465718,-0.032714024\C,0.7140860477,1.1205004404,0.001
 8463229\H,1.3544635553,0.2359579932,0.0112826273\H,0.9500941483,1.7275
 863417,-0.8743095154\H,0.9122677237,1.7133511276,0.8976209299\O,-1.523
 2989388,1.9345149222,-0.0474758243\H,-2.4622531098,1.7013721358,-0.125
 5068915\P,-1.1075875606,-0.2329290117,-1.5932293246\P,-1.1637804579,-0
 .232604477,1.5135987541\O,-2.7092495851,-0.0579533563,-1.6685136491\H,
 -3.0804073359,-0.2263248907,-2.5493457456\O,-0.6170952977,0.7380208923
 ,-2.7940197443\H,0.1946276946,0.4097763734,-3.2115477245\O,-2.77032622
 57,-0.2864111081,1.3847383701\H,-3.2215905517,-0.5393958239,2.20594115
 25\O,-0.95339996,0.8375209754,2.712371254\H,-0.1890189372,0.6053284215
 ,3.2624685267\O,-0.4316004254,-1.5128346714,1.7110919844\O,-0.55049485
 88,-1.6111593963,-1.6517332585\\Version=EM64L-G16RevA.03\State=1-A\HF=
 -1290.4710142\RMSD=2.348e-09\RMSF=8.839e-06\Dipole=-0.4935203,1.492147
 5,-0.1284527\Quadrupole=6.158724,-17.4541979,11.2954739,5.8775525,-0.7
 020759,0.1593933\PG=C01 [X(C2H8O7P2)]\\@


 THERE ARE PEOPLE SO ADDICTED TO EXAGERATING THEY
 CAN'T TELL THE TRUTH WITHOUT LYING. -- FORTUNE COOKIE
 Job cpu time:       0 days  3 hours 12 minutes 59.0 seconds.
 Elapsed time:       0 days  0 hours 42 minutes 28.7 seconds.
 File lengths (MBytes):  RWF=     86 Int=      0 D2E=      0 Chk=      6 Scr=      1
 Normal termination of Gaussian 16 at Thu Jan 21 20:59:18 2021.
