 Entering Gaussian System, Link 0=g16
 Input=w-etidronate_anion_scf_g09.com
 Output=w-etidronate_anion_scf_g09.log
 Initial command:
 /usr/local//g16/l1.exe "/home/orison/scrgauss/Gau-23068.inp" -scrdir="/home/orison/scrgauss/"
 Entering Link 1 = /usr/local//g16/l1.exe PID=     23070.
  
 Copyright (c) 1988,1990,1992,1993,1995,1998,2003,2009,2016,
            Gaussian, Inc.  All Rights Reserved.
  
 This is part of the Gaussian(R) 16 program.  It is based on
 the Gaussian(R) 09 system (copyright 2009, Gaussian, Inc.),
 the Gaussian(R) 03 system (copyright 2003, Gaussian, Inc.),
 the Gaussian(R) 98 system (copyright 1998, Gaussian, Inc.),
 the Gaussian(R) 94 system (copyright 1995, Gaussian, Inc.),
 the Gaussian 92(TM) system (copyright 1992, Gaussian, Inc.),
 the Gaussian 90(TM) system (copyright 1990, Gaussian, Inc.),
 the Gaussian 88(TM) system (copyright 1988, Gaussian, Inc.),
 the Gaussian 86(TM) system (copyright 1986, Carnegie Mellon
 University), and the Gaussian 82(TM) system (copyright 1983,
 Carnegie Mellon University). Gaussian is a federally registered
 trademark of Gaussian, Inc.
  
 This software contains proprietary and confidential information,
 including trade secrets, belonging to Gaussian, Inc.
  
 This software is provided under written license and may be
 used, copied, transmitted, or stored only in accord with that
 written license.
  
 The following legend is applicable only to US Government
 contracts under FAR:
  
                    RESTRICTED RIGHTS LEGEND
  
 Use, reproduction and disclosure by the US Government is
 subject to restrictions as set forth in subparagraphs (a)
 and (c) of the Commercial Computer Software - Restricted
 Rights clause in FAR 52.227-19.
  
 Gaussian, Inc.
 340 Quinnipiac St., Bldg. 40, Wallingford CT 06492
  
  
 ---------------------------------------------------------------
 Warning -- This program may not be used in any manner that
 competes with the business of Gaussian, Inc. or will provide
 assistance to any competitor of Gaussian, Inc.  The licensee
 of this program is prohibited from giving any competitor of
 Gaussian, Inc. access to this program.  By using this program,
 the user acknowledges that Gaussian, Inc. is engaged in the
 business of creating and licensing software in the field of
 computational chemistry and represents and warrants to the
 licensee that it is not a competitor of Gaussian, Inc. and that
 it will not use this program in any manner prohibited above.
 ---------------------------------------------------------------
  

 Cite this work as:
 Gaussian 16, Revision A.03,
 M. J. Frisch, G. W. Trucks, H. B. Schlegel, G. E. Scuseria, 
 M. A. Robb, J. R. Cheeseman, G. Scalmani, V. Barone, 
 G. A. Petersson, H. Nakatsuji, X. Li, M. Caricato, A. V. Marenich, 
 J. Bloino, B. G. Janesko, R. Gomperts, B. Mennucci, H. P. Hratchian, 
 J. V. Ortiz, A. F. Izmaylov, J. L. Sonnenberg, D. Williams-Young, 
 F. Ding, F. Lipparini, F. Egidi, J. Goings, B. Peng, A. Petrone, 
 T. Henderson, D. Ranasinghe, V. G. Zakrzewski, J. Gao, N. Rega, 
 G. Zheng, W. Liang, M. Hada, M. Ehara, K. Toyota, R. Fukuda, 
 J. Hasegawa, M. Ishida, T. Nakajima, Y. Honda, O. Kitao, H. Nakai, 
 T. Vreven, K. Throssell, J. A. Montgomery, Jr., J. E. Peralta, 
 F. Ogliaro, M. J. Bearpark, J. J. Heyd, E. N. Brothers, K. N. Kudin, 
 V. N. Staroverov, T. A. Keith, R. Kobayashi, J. Normand, 
 K. Raghavachari, A. P. Rendell, J. C. Burant, S. S. Iyengar, 
 J. Tomasi, M. Cossi, J. M. Millam, M. Klene, C. Adamo, R. Cammi, 
 J. W. Ochterski, R. L. Martin, K. Morokuma, O. Farkas, 
 J. B. Foresman, and D. J. Fox, Gaussian, Inc., Wallingford CT, 2016.
 
 ******************************************
 Gaussian 16:  EM64L-G16RevA.03 25-Dec-2016
                22-Jan-2021 
 ******************************************
 %nproc=8
 Will use up to    8 processors via shared memory.
 %Mem=4GB
 ----------------------------------------------------------------------
 #t B3LYP/6-31G(d,p) scrf=(solvent=water) # Gfinput IOP(6/7=3) Pop=hirs
 hfeld Density Test # Units(Ang,Deg)
 ----------------------------------------------------------------------
 ------------------------
 w-etidronate-opt-g09.log
 ------------------------
 Symbolic Z-matrix:
 Charge = -1 Multiplicity = 2
 C                    -0.00171   0.68714  -0.19864 
 C                    -0.00329   1.99159   0.60876 
 H                    -0.00153   1.79093   1.68222 
 H                     0.87947   2.57956   0.35006 
 H                    -0.89289   2.57309   0.35651 
 O                     0.00033   1.04131  -1.57479 
 H                     0.05751   0.22467  -2.09625 
 P                     1.5484   -0.27069   0.19782 
 P                    -1.55891  -0.25671   0.19906 
 O                     1.58979  -1.24737  -1.08514 
 H                     2.46196  -1.63979  -1.25035 
 O                     2.76224   0.75085  -0.13124 
 H                     3.19615   1.06439   0.6777 
 O                    -1.46472  -1.4036   -0.93067 
 H                    -2.29615  -1.88381  -1.07259 
 O                    -2.7498    0.68445  -0.36881 
 H                    -3.28402   1.0514    0.35282 
 O                    -1.74432  -0.67801   1.61405 
 O                     1.61488  -0.88788   1.54984 
 
                    Distance matrix (angstroms):
                    1          2          3          4          5
     1  C    0.000000
     2  C    1.534108   0.000000
     3  H    2.180822   1.092055   0.000000
     4  H    2.158426   1.091742   1.781221   0.000000
     5  H    2.158518   1.092319   1.778708   1.772384   0.000000
     6  O    1.420996   2.381373   3.342162   2.616132   2.621853
     7  H    1.954049   3.231529   4.090659   3.493645   3.526240
     8  P    1.864795   2.773901   2.975904   2.931650   3.751288
     9  P    1.863837   2.764536   2.969516   3.743384   2.911381
    10  O    2.657270   3.987238   4.407023   4.148463   4.778909
    11  H    3.548291   4.766620   5.141847   4.782102   5.620087
    12  O    2.765506   3.120127   3.465376   2.668455   4.113202
    13  H    3.337154   3.331797   3.429589   2.787489   4.370307
    14  O    2.654705   4.004115   4.378715   4.795942   4.218754
    15  H    3.555000   4.806544   5.134002   5.659520   4.886248
    16  O    2.753355   3.194930   3.603333   4.156900   2.746118
    17  H    3.348186   3.422375   3.617865   4.435079   2.834265
    18  O    2.861148   3.341939   3.022851   4.369635   3.588313
    19  O    2.855037   3.434451   3.131506   3.742117   4.437484
                    6          7          8          9         10
     6  O    0.000000
     7  H    0.970614   0.000000
     8  P    2.694441   2.780448   0.000000
     9  P    2.694927   2.848331   3.107342   0.000000
    10  O    2.829169   2.353110   1.612949   3.541876   0.000000
    11  H    3.654200   3.158028   2.192310   4.492337   0.970551
    12  O    3.129912   3.384331   1.620257   4.449338   2.505483
    13  H    3.909924   4.272118   2.174351   4.958326   3.321480
    14  O    2.922131   2.515358   3.411139   1.612612   3.062401
    15  H    3.752646   3.321639   4.358516   2.192731   3.937733
    16  O    3.024062   3.328128   4.439356   1.620641   4.803863
    17  H    3.808246   4.224600   5.012408   2.170437   5.577284
    18  O    4.021015   4.222292   3.607440   1.487974   4.327365
    19  O    4.011466   4.117905   1.487717   3.506555   2.659508
                   11         12         13         14         15
    11  H    0.000000
    12  O    2.656640   0.000000
    13  H    3.401323   0.970036   0.000000
    14  O    3.946745   4.811230   5.513759   0.000000
    15  H    4.767678   5.780561   6.474624   0.970577   0.000000
    16  O    5.774223   5.517557   6.049286   2.515367   2.701308
    17  H    6.544383   6.073047   6.488322   3.314246   3.409272
    18  O    5.179054   5.039520   5.321743   2.660875   2.996082
    19  O    3.020592   2.613025   2.659399   3.987836   4.813021
                   16         17         18         19
    16  O    0.000000
    17  H    0.969945   0.000000
    18  O    2.607493   2.636709   0.000000
    19  O    5.020346   5.403044   3.366362   0.000000
 Framework group  C1[X(C2H8O7P2)]
 Deg. of freedom    51
                         Standard orientation:                         
 ---------------------------------------------------------------------
 Center     Atomic      Atomic             Coordinates (Angstroms)
 Number     Number       Type             X           Y           Z
 ---------------------------------------------------------------------
      1          6           0       -0.001711    0.687142   -0.198640
      2          6           0       -0.003292    1.991592    0.608760
      3          1           0       -0.001532    1.790932    1.682220
      4          1           0        0.879467    2.579562    0.350060
      5          1           0       -0.892893    2.573091    0.356510
      6          8           0        0.000329    1.041312   -1.574790
      7          1           0        0.057509    0.224672   -2.096250
      8         15           0        1.548400   -0.270687    0.197820
      9         15           0       -1.558910   -0.256710    0.199060
     10          8           0        1.589791   -1.247367   -1.085140
     11          1           0        2.461961   -1.639786   -1.250350
     12          8           0        2.762239    0.750854   -0.131240
     13          1           0        3.196149    1.064394    0.677700
     14          8           0       -1.464719   -1.403600   -0.930670
     15          1           0       -2.296149   -1.883810   -1.072590
     16          8           0       -2.749801    0.684449   -0.368810
     17          1           0       -3.284021    1.051399    0.352820
     18          8           0       -1.744320   -0.678010    1.614050
     19          8           0        1.614880   -0.887877    1.549840
 ---------------------------------------------------------------------
 Rotational constants (GHZ):           1.3811679           0.6640302           0.6409754
 AO basis set in the form of general basis input (Overlap normalization):
      1 0
 S   6 1.00       0.000000000000
      0.3047524880D+04  0.1834737132D-02
      0.4573695180D+03  0.1403732281D-01
      0.1039486850D+03  0.6884262226D-01
      0.2921015530D+02  0.2321844432D+00
      0.9286662960D+01  0.4679413484D+00
      0.3163926960D+01  0.3623119853D+00
 SP   3 1.00       0.000000000000
      0.7868272350D+01 -0.1193324198D+00  0.6899906659D-01
      0.1881288540D+01 -0.1608541517D+00  0.3164239610D+00
      0.5442492580D+00  0.1143456438D+01  0.7443082909D+00
 SP   1 1.00       0.000000000000
      0.1687144782D+00  0.1000000000D+01  0.1000000000D+01
 D   1 1.00       0.000000000000
      0.8000000000D+00  0.1000000000D+01
 ****
      2 0
 S   6 1.00       0.000000000000
      0.3047524880D+04  0.1834737132D-02
      0.4573695180D+03  0.1403732281D-01
      0.1039486850D+03  0.6884262226D-01
      0.2921015530D+02  0.2321844432D+00
      0.9286662960D+01  0.4679413484D+00
      0.3163926960D+01  0.3623119853D+00
 SP   3 1.00       0.000000000000
      0.7868272350D+01 -0.1193324198D+00  0.6899906659D-01
      0.1881288540D+01 -0.1608541517D+00  0.3164239610D+00
      0.5442492580D+00  0.1143456438D+01  0.7443082909D+00
 SP   1 1.00       0.000000000000
      0.1687144782D+00  0.1000000000D+01  0.1000000000D+01
 D   1 1.00       0.000000000000
      0.8000000000D+00  0.1000000000D+01
 ****
      3 0
 S   3 1.00       0.000000000000
      0.1873113696D+02  0.3349460434D-01
      0.2825394365D+01  0.2347269535D+00
      0.6401216923D+00  0.8137573261D+00
 S   1 1.00       0.000000000000
      0.1612777588D+00  0.1000000000D+01
 P   1 1.00       0.000000000000
      0.1100000000D+01  0.1000000000D+01
 ****
      4 0
 S   3 1.00       0.000000000000
      0.1873113696D+02  0.3349460434D-01
      0.2825394365D+01  0.2347269535D+00
      0.6401216923D+00  0.8137573261D+00
 S   1 1.00       0.000000000000
      0.1612777588D+00  0.1000000000D+01
 P   1 1.00       0.000000000000
      0.1100000000D+01  0.1000000000D+01
 ****
      5 0
 S   3 1.00       0.000000000000
      0.1873113696D+02  0.3349460434D-01
      0.2825394365D+01  0.2347269535D+00
      0.6401216923D+00  0.8137573261D+00
 S   1 1.00       0.000000000000
      0.1612777588D+00  0.1000000000D+01
 P   1 1.00       0.000000000000
      0.1100000000D+01  0.1000000000D+01
 ****
      6 0
 S   6 1.00       0.000000000000
      0.5484671660D+04  0.1831074430D-02
      0.8252349460D+03  0.1395017220D-01
      0.1880469580D+03  0.6844507810D-01
      0.5296450000D+02  0.2327143360D+00
      0.1689757040D+02  0.4701928980D+00
      0.5799635340D+01  0.3585208530D+00
 SP   3 1.00       0.000000000000
      0.1553961625D+02 -0.1107775495D+00  0.7087426823D-01
      0.3599933586D+01 -0.1480262627D+00  0.3397528391D+00
      0.1013761750D+01  0.1130767015D+01  0.7271585773D+00
 SP   1 1.00       0.000000000000
      0.2700058226D+00  0.1000000000D+01  0.1000000000D+01
 D   1 1.00       0.000000000000
      0.8000000000D+00  0.1000000000D+01
 ****
      7 0
 S   3 1.00       0.000000000000
      0.1873113696D+02  0.3349460434D-01
      0.2825394365D+01  0.2347269535D+00
      0.6401216923D+00  0.8137573261D+00
 S   1 1.00       0.000000000000
      0.1612777588D+00  0.1000000000D+01
 P   1 1.00       0.000000000000
      0.1100000000D+01  0.1000000000D+01
 ****
      8 0
 S   6 1.00       0.000000000000
      0.1941330000D+05  0.1851598923D-02
      0.2909420000D+04  0.1420619174D-01
      0.6613640000D+03  0.6999945928D-01
      0.1857590000D+03  0.2400788603D+00
      0.5919430000D+02  0.4847617180D+00
      0.2003100000D+02  0.3351998050D+00
 SP   6 1.00       0.000000000000
      0.3394780000D+03 -0.2782170105D-02  0.4564616191D-02
      0.8101010000D+02 -0.3604990135D-01  0.3369357188D-01
      0.2587800000D+02 -0.1166310044D+00  0.1397548834D+00
      0.9452210000D+01  0.9683280364D-01  0.3393617168D+00
      0.3665660000D+01  0.6144180231D+00  0.4509206237D+00
      0.1467460000D+01  0.4037980152D+00  0.2385858009D+00
 SP   3 1.00       0.000000000000
      0.2156230000D+01 -0.2529241139D+00 -0.1776531273D-01
      0.7489970000D+00  0.3285184468D-01  0.2740581964D+00
      0.2831450000D+00  0.1081254762D+01  0.7854215630D+00
 SP   1 1.00       0.000000000000
      0.9983170000D-01  0.1000000000D+01  0.1000000000D+01
 D   1 1.00       0.000000000000
      0.5500000000D+00  0.1000000000D+01
 ****
      9 0
 S   6 1.00       0.000000000000
      0.1941330000D+05  0.1851598923D-02
      0.2909420000D+04  0.1420619174D-01
      0.6613640000D+03  0.6999945928D-01
      0.1857590000D+03  0.2400788603D+00
      0.5919430000D+02  0.4847617180D+00
      0.2003100000D+02  0.3351998050D+00
 SP   6 1.00       0.000000000000
      0.3394780000D+03 -0.2782170105D-02  0.4564616191D-02
      0.8101010000D+02 -0.3604990135D-01  0.3369357188D-01
      0.2587800000D+02 -0.1166310044D+00  0.1397548834D+00
      0.9452210000D+01  0.9683280364D-01  0.3393617168D+00
      0.3665660000D+01  0.6144180231D+00  0.4509206237D+00
      0.1467460000D+01  0.4037980152D+00  0.2385858009D+00
 SP   3 1.00       0.000000000000
      0.2156230000D+01 -0.2529241139D+00 -0.1776531273D-01
      0.7489970000D+00  0.3285184468D-01  0.2740581964D+00
      0.2831450000D+00  0.1081254762D+01  0.7854215630D+00
 SP   1 1.00       0.000000000000
      0.9983170000D-01  0.1000000000D+01  0.1000000000D+01
 D   1 1.00       0.000000000000
      0.5500000000D+00  0.1000000000D+01
 ****
     10 0
 S   6 1.00       0.000000000000
      0.5484671660D+04  0.1831074430D-02
      0.8252349460D+03  0.1395017220D-01
      0.1880469580D+03  0.6844507810D-01
      0.5296450000D+02  0.2327143360D+00
      0.1689757040D+02  0.4701928980D+00
      0.5799635340D+01  0.3585208530D+00
 SP   3 1.00       0.000000000000
      0.1553961625D+02 -0.1107775495D+00  0.7087426823D-01
      0.3599933586D+01 -0.1480262627D+00  0.3397528391D+00
      0.1013761750D+01  0.1130767015D+01  0.7271585773D+00
 SP   1 1.00       0.000000000000
      0.2700058226D+00  0.1000000000D+01  0.1000000000D+01
 D   1 1.00       0.000000000000
      0.8000000000D+00  0.1000000000D+01
 ****
     11 0
 S   3 1.00       0.000000000000
      0.1873113696D+02  0.3349460434D-01
      0.2825394365D+01  0.2347269535D+00
      0.6401216923D+00  0.8137573261D+00
 S   1 1.00       0.000000000000
      0.1612777588D+00  0.1000000000D+01
 P   1 1.00       0.000000000000
      0.1100000000D+01  0.1000000000D+01
 ****
     12 0
 S   6 1.00       0.000000000000
      0.5484671660D+04  0.1831074430D-02
      0.8252349460D+03  0.1395017220D-01
      0.1880469580D+03  0.6844507810D-01
      0.5296450000D+02  0.2327143360D+00
      0.1689757040D+02  0.4701928980D+00
      0.5799635340D+01  0.3585208530D+00
 SP   3 1.00       0.000000000000
      0.1553961625D+02 -0.1107775495D+00  0.7087426823D-01
      0.3599933586D+01 -0.1480262627D+00  0.3397528391D+00
      0.1013761750D+01  0.1130767015D+01  0.7271585773D+00
 SP   1 1.00       0.000000000000
      0.2700058226D+00  0.1000000000D+01  0.1000000000D+01
 D   1 1.00       0.000000000000
      0.8000000000D+00  0.1000000000D+01
 ****
     13 0
 S   3 1.00       0.000000000000
      0.1873113696D+02  0.3349460434D-01
      0.2825394365D+01  0.2347269535D+00
      0.6401216923D+00  0.8137573261D+00
 S   1 1.00       0.000000000000
      0.1612777588D+00  0.1000000000D+01
 P   1 1.00       0.000000000000
      0.1100000000D+01  0.1000000000D+01
 ****
     14 0
 S   6 1.00       0.000000000000
      0.5484671660D+04  0.1831074430D-02
      0.8252349460D+03  0.1395017220D-01
      0.1880469580D+03  0.6844507810D-01
      0.5296450000D+02  0.2327143360D+00
      0.1689757040D+02  0.4701928980D+00
      0.5799635340D+01  0.3585208530D+00
 SP   3 1.00       0.000000000000
      0.1553961625D+02 -0.1107775495D+00  0.7087426823D-01
      0.3599933586D+01 -0.1480262627D+00  0.3397528391D+00
      0.1013761750D+01  0.1130767015D+01  0.7271585773D+00
 SP   1 1.00       0.000000000000
      0.2700058226D+00  0.1000000000D+01  0.1000000000D+01
 D   1 1.00       0.000000000000
      0.8000000000D+00  0.1000000000D+01
 ****
     15 0
 S   3 1.00       0.000000000000
      0.1873113696D+02  0.3349460434D-01
      0.2825394365D+01  0.2347269535D+00
      0.6401216923D+00  0.8137573261D+00
 S   1 1.00       0.000000000000
      0.1612777588D+00  0.1000000000D+01
 P   1 1.00       0.000000000000
      0.1100000000D+01  0.1000000000D+01
 ****
     16 0
 S   6 1.00       0.000000000000
      0.5484671660D+04  0.1831074430D-02
      0.8252349460D+03  0.1395017220D-01
      0.1880469580D+03  0.6844507810D-01
      0.5296450000D+02  0.2327143360D+00
      0.1689757040D+02  0.4701928980D+00
      0.5799635340D+01  0.3585208530D+00
 SP   3 1.00       0.000000000000
      0.1553961625D+02 -0.1107775495D+00  0.7087426823D-01
      0.3599933586D+01 -0.1480262627D+00  0.3397528391D+00
      0.1013761750D+01  0.1130767015D+01  0.7271585773D+00
 SP   1 1.00       0.000000000000
      0.2700058226D+00  0.1000000000D+01  0.1000000000D+01
 D   1 1.00       0.000000000000
      0.8000000000D+00  0.1000000000D+01
 ****
     17 0
 S   3 1.00       0.000000000000
      0.1873113696D+02  0.3349460434D-01
      0.2825394365D+01  0.2347269535D+00
      0.6401216923D+00  0.8137573261D+00
 S   1 1.00       0.000000000000
      0.1612777588D+00  0.1000000000D+01
 P   1 1.00       0.000000000000
      0.1100000000D+01  0.1000000000D+01
 ****
     18 0
 S   6 1.00       0.000000000000
      0.5484671660D+04  0.1831074430D-02
      0.8252349460D+03  0.1395017220D-01
      0.1880469580D+03  0.6844507810D-01
      0.5296450000D+02  0.2327143360D+00
      0.1689757040D+02  0.4701928980D+00
      0.5799635340D+01  0.3585208530D+00
 SP   3 1.00       0.000000000000
      0.1553961625D+02 -0.1107775495D+00  0.7087426823D-01
      0.3599933586D+01 -0.1480262627D+00  0.3397528391D+00
      0.1013761750D+01  0.1130767015D+01  0.7271585773D+00
 SP   1 1.00       0.000000000000
      0.2700058226D+00  0.1000000000D+01  0.1000000000D+01
 D   1 1.00       0.000000000000
      0.8000000000D+00  0.1000000000D+01
 ****
     19 0
 S   6 1.00       0.000000000000
      0.5484671660D+04  0.1831074430D-02
      0.8252349460D+03  0.1395017220D-01
      0.1880469580D+03  0.6844507810D-01
      0.5296450000D+02  0.2327143360D+00
      0.1689757040D+02  0.4701928980D+00
      0.5799635340D+01  0.3585208530D+00
 SP   3 1.00       0.000000000000
      0.1553961625D+02 -0.1107775495D+00  0.7087426823D-01
      0.3599933586D+01 -0.1480262627D+00  0.3397528391D+00
      0.1013761750D+01  0.1130767015D+01  0.7271585773D+00
 SP   1 1.00       0.000000000000
      0.2700058226D+00  0.1000000000D+01  0.1000000000D+01
 D   1 1.00       0.000000000000
      0.8000000000D+00  0.1000000000D+01
 ****

   213 basis functions,   412 primitive gaussians,   213 cartesian basis functions
    54 alpha electrons       53 beta electrons
       nuclear repulsion energy      1015.6344246122 Hartrees.
 NAtoms=   19 NActive=   19 NUniq=   19 SFac= 1.00D+00 NAtFMM=   60 NAOKFM=F Big=F
 ------------------------------------------------------------------------------
 Polarizable Continuum Model (PCM)
 =================================
 Model                : PCM.
 Atomic radii         : UFF (Universal Force Field).
 Polarization charges : Total charges.
 Charge compensation  : None.
 Solution method      : On-the-fly selection.
 Cavity type          : Scaled VdW (van der Waals Surface) (Alpha=1.100).
 Cavity algorithm     : GePol (No added spheres)
                        Default sphere list used, NSphG=   19.
                        Lebedev-Laikov grids with approx.  5.0 points / Ang**2.
                        Smoothing algorithm: York/Karplus (Gamma=1.0000).
                        Polarization charges: spherical gaussians, with
                                              point-specific exponents (IZeta= 3).
                        Self-potential: point-specific (ISelfS= 7).
                        Self-field    : sphere-specific E.n sum rule (ISelfD= 2).
 Solvent              : Water, Eps=  78.355300 Eps(inf)=   1.777849
 ------------------------------------------------------------------------------
 Spheres list:
 ISph  on   Nord     Re0    Alpha      Xe            Ye            Ze
    1   C      1    1.9255  1.100     -0.001711      0.687142     -0.198640
    2   C      2    1.9255  1.100     -0.003292      1.991592      0.608760
    3   H      3    1.4430  1.100     -0.001532      1.790932      1.682220
    4   H      4    1.4430  1.100      0.879467      2.579562      0.350060
    5   H      5    1.4430  1.100     -0.892893      2.573091      0.356510
    6   O      6    1.7500  1.100      0.000329      1.041312     -1.574790
    7   H      7    1.4430  1.100      0.057509      0.224672     -2.096250
    8   P      8    2.0735  1.100      1.548400     -0.270687      0.197820
    9   P      9    2.0735  1.100     -1.558910     -0.256710      0.199060
   10   O     10    1.7500  1.100      1.589791     -1.247367     -1.085140
   11   H     11    1.4430  1.100      2.461961     -1.639786     -1.250350
   12   O     12    1.7500  1.100      2.762239      0.750854     -0.131240
   13   H     13    1.4430  1.100      3.196149      1.064394      0.677700
   14   O     14    1.7500  1.100     -1.464719     -1.403600     -0.930670
   15   H     15    1.4430  1.100     -2.296149     -1.883810     -1.072590
   16   O     16    1.7500  1.100     -2.749801      0.684449     -0.368810
   17   H     17    1.4430  1.100     -3.284021      1.051399      0.352820
   18   O     18    1.7500  1.100     -1.744320     -0.678010      1.614050
   19   O     19    1.7500  1.100      1.614880     -0.887877      1.549840
 ------------------------------------------------------------------------------
 ExpMin= 9.98D-02 ExpMax= 1.94D+04 ExpMxC= 2.91D+03 IAcc=3 IRadAn=         5 AccDes= 0.00D+00
 Harris functional with IExCor=  402 and IRadAn=       5 diagonalized for initial guess.
 HarFok:  IExCor=  402 AccDes= 0.00D+00 IRadAn=         5 IDoV= 1 UseB2=F ITyADJ=14
 ICtDFT=  3500011 ScaDFX=  1.000000  1.000000  1.000000  1.000000
 FoFCou: FMM=F IPFlag=           0 FMFlag=      100000 FMFlg1=           0
         NFxFlg=           0 DoJE=T BraDBF=F KetDBF=T FulRan=T
         wScrn=  0.000000 ICntrl=       500 IOpCl=  0 I1Cent=   200000004 NGrid=           0
         NMat0=    1 NMatS0=      1 NMatT0=    0 NMatD0=    1 NMtDS0=    0 NMtDT0=    0
 Petite list used in FoFCou.
 Initial guess <Sx>= 0.0000 <Sy>= 0.0000 <Sz>= 0.5000 <S**2>= 0.7500 S= 0.5000
 Inv3:  Mode=1 IEnd=     8517675.
 Iteration    1 A*A^-1 deviation from unit magnitude is 6.88D-15 for    683.
 Iteration    1 A*A^-1 deviation from orthogonality  is 4.02D-15 for   1251    508.
 Iteration    1 A^-1*A deviation from unit magnitude is 6.44D-15 for    683.
 Iteration    1 A^-1*A deviation from orthogonality  is 2.43D-15 for   1636   1171.
 Restarting incremental Fock formation.
 Error on total polarization charges =  0.00947
 SCF Done:  E(UB3LYP) =  -1290.45196964     A.U. after   27 cycles
            NFock= 27  Conv=0.30D-08     -V/T= 2.0056
 <Sx>= 0.0000 <Sy>= 0.0000 <Sz>= 0.5000 <S**2>= 0.7511 S= 0.5005
 <L.S>= 0.000000000000E+00
 Annihilation of the first spin contaminant:
 S**2 before annihilation     0.7511,   after     0.7500

 **********************************************************************

            Population analysis using the SCF density.

 **********************************************************************

 Orbital symmetries:
 Alpha Orbitals:
       Occupied  (A) (A) (A) (A) (A) (A) (A) (A) (A) (A) (A) (A)
                 (A) (A) (A) (A) (A) (A) (A) (A) (A) (A) (A) (A)
                 (A) (A) (A) (A) (A) (A) (A) (A) (A) (A) (A) (A)
                 (A) (A) (A) (A) (A) (A) (A) (A) (A) (A) (A) (A)
                 (A) (A) (A) (A) (A) (A)
       Virtual   (A) (A) (A) (A) (A) (A) (A) (A) (A) (A) (A) (A)
                 (A) (A) (A) (A) (A) (A) (A) (A) (A) (A) (A) (A)
                 (A) (A) (A) (A) (A) (A) (A) (A) (A) (A) (A) (A)
                 (A) (A) (A) (A) (A) (A) (A) (A) (A) (A) (A) (A)
                 (A) (A) (A) (A) (A) (A) (A) (A) (A) (A) (A) (A)
                 (A) (A) (A) (A) (A) (A) (A) (A) (A) (A) (A) (A)
                 (A) (A) (A) (A) (A) (A) (A) (A) (A) (A) (A) (A)
                 (A) (A) (A) (A) (A) (A) (A) (A) (A) (A) (A) (A)
                 (A) (A) (A) (A) (A) (A) (A) (A) (A) (A) (A) (A)
                 (A) (A) (A) (A) (A) (A) (A) (A) (A) (A) (A) (A)
                 (A) (A) (A) (A) (A) (A) (A) (A) (A) (A) (A) (A)
                 (A) (A) (A) (A) (A) (A) (A) (A) (A) (A) (A) (A)
                 (A) (A) (A) (A) (A) (A) (A) (A) (A) (A) (A) (A)
                 (A) (A) (A)
 Beta  Orbitals:
       Occupied  (A) (A) (A) (A) (A) (A) (A) (A) (A) (A) (A) (A)
                 (A) (A) (A) (A) (A) (A) (A) (A) (A) (A) (A) (A)
                 (A) (A) (A) (A) (A) (A) (A) (A) (A) (A) (A) (A)
                 (A) (A) (A) (A) (A) (A) (A) (A) (A) (A) (A) (A)
                 (A) (A) (A) (A) (A)
       Virtual   (A) (A) (A) (A) (A) (A) (A) (A) (A) (A) (A) (A)
                 (A) (A) (A) (A) (A) (A) (A) (A) (A) (A) (A) (A)
                 (A) (A) (A) (A) (A) (A) (A) (A) (A) (A) (A) (A)
                 (A) (A) (A) (A) (A) (A) (A) (A) (A) (A) (A) (A)
                 (A) (A) (A) (A) (A) (A) (A) (A) (A) (A) (A) (A)
                 (A) (A) (A) (A) (A) (A) (A) (A) (A) (A) (A) (A)
                 (A) (A) (A) (A) (A) (A) (A) (A) (A) (A) (A) (A)
                 (A) (A) (A) (A) (A) (A) (A) (A) (A) (A) (A) (A)
                 (A) (A) (A) (A) (A) (A) (A) (A) (A) (A) (A) (A)
                 (A) (A) (A) (A) (A) (A) (A) (A) (A) (A) (A) (A)
                 (A) (A) (A) (A) (A) (A) (A) (A) (A) (A) (A) (A)
                 (A) (A) (A) (A) (A) (A) (A) (A) (A) (A) (A) (A)
                 (A) (A) (A) (A) (A) (A) (A) (A) (A) (A) (A) (A)
                 (A) (A) (A) (A)
 The electronic state is 2-A.
 Alpha  occ. eigenvalues --  -77.19489 -77.18922 -19.16273 -19.15996 -19.15456
 Alpha  occ. eigenvalues --  -19.15124 -19.14570 -19.09968 -19.09583 -10.23795
 Alpha  occ. eigenvalues --  -10.17771  -6.64477  -6.63919  -4.80928  -4.80779
 Alpha  occ. eigenvalues --   -4.80540  -4.80365  -4.80213  -4.79987  -1.06040
 Alpha  occ. eigenvalues --   -1.05193  -1.01652  -1.01093  -1.00333  -0.94932
 Alpha  occ. eigenvalues --   -0.94470  -0.75648  -0.65111  -0.62443  -0.56918
 Alpha  occ. eigenvalues --   -0.54194  -0.52597  -0.50465  -0.47625  -0.44711
 Alpha  occ. eigenvalues --   -0.44095  -0.40903  -0.40202  -0.39365  -0.38999
 Alpha  occ. eigenvalues --   -0.37986  -0.37632  -0.36051  -0.35022  -0.34550
 Alpha  occ. eigenvalues --   -0.33980  -0.32375  -0.31871  -0.29690  -0.28399
 Alpha  occ. eigenvalues --   -0.28192  -0.27857  -0.24379   0.00955
 Alpha virt. eigenvalues --    0.05480   0.05557   0.08081   0.09057   0.12694
 Alpha virt. eigenvalues --    0.12776   0.13269   0.15111   0.15433   0.15991
 Alpha virt. eigenvalues --    0.17064   0.17633   0.19957   0.21275   0.22678
 Alpha virt. eigenvalues --    0.24231   0.26996   0.34506   0.36118   0.38353
 Alpha virt. eigenvalues --    0.39781   0.41683   0.42994   0.44142   0.44846
 Alpha virt. eigenvalues --    0.51712   0.56529   0.58685   0.59715   0.61777
 Alpha virt. eigenvalues --    0.66297   0.72693   0.75917   0.76376   0.77124
 Alpha virt. eigenvalues --    0.78458   0.79222   0.80187   0.81177   0.83182
 Alpha virt. eigenvalues --    0.86033   0.87134   0.88344   0.88806   0.90383
 Alpha virt. eigenvalues --    0.91109   0.91424   0.93502   0.94265   0.96361
 Alpha virt. eigenvalues --    0.97138   0.99840   1.00628   1.01112   1.02472
 Alpha virt. eigenvalues --    1.03717   1.04684   1.06207   1.07017   1.09249
 Alpha virt. eigenvalues --    1.12540   1.14015   1.15815   1.16707   1.19230
 Alpha virt. eigenvalues --    1.20368   1.21716   1.22281   1.25538   1.30468
 Alpha virt. eigenvalues --    1.31810   1.36866   1.39928   1.42276   1.45202
 Alpha virt. eigenvalues --    1.47547   1.50237   1.56616   1.57120   1.58678
 Alpha virt. eigenvalues --    1.58903   1.60230   1.61665   1.66340   1.67870
 Alpha virt. eigenvalues --    1.69461   1.72289   1.73359   1.75223   1.78694
 Alpha virt. eigenvalues --    1.83928   1.84298   1.85727   1.86638   1.87576
 Alpha virt. eigenvalues --    1.88918   1.90332   1.91452   1.95581   1.98694
 Alpha virt. eigenvalues --    1.99300   2.03279   2.05881   2.06092   2.08153
 Alpha virt. eigenvalues --    2.11294   2.12561   2.16319   2.17501   2.21455
 Alpha virt. eigenvalues --    2.25114   2.32605   2.33200   2.35708   2.36158
 Alpha virt. eigenvalues --    2.40872   2.42085   2.44050   2.44960   2.49514
 Alpha virt. eigenvalues --    2.51171   2.52184   2.62788   2.63536   2.63903
 Alpha virt. eigenvalues --    2.64240   2.64554   2.65374   2.67180   2.70516
 Alpha virt. eigenvalues --    2.72235   2.73081   2.75298   2.76273   2.80252
 Alpha virt. eigenvalues --    2.83252   2.85038   2.88575   2.94578   3.01888
 Alpha virt. eigenvalues --    3.23150   3.36093   3.37424   3.37728   3.39166
 Alpha virt. eigenvalues --    3.44248   3.45278   3.48027   3.53759   3.58610
 Alpha virt. eigenvalues --    3.86161   3.90618   3.93247   4.02817   4.08699
 Alpha virt. eigenvalues --    4.26548   4.29695   4.39201   4.60117
  Beta  occ. eigenvalues --  -77.19456 -77.18877 -19.16087 -19.15804 -19.15216
  Beta  occ. eigenvalues --  -19.14819 -19.14480 -19.09929 -19.09526 -10.23594
  Beta  occ. eigenvalues --  -10.17746  -6.64427  -6.63851  -4.80897  -4.80734
  Beta  occ. eigenvalues --   -4.80500  -4.80324  -4.80154  -4.79934  -1.05640
  Beta  occ. eigenvalues --   -1.04663  -1.01396  -1.00656  -0.99702  -0.94783
  Beta  occ. eigenvalues --   -0.94274  -0.75380  -0.64779  -0.62057  -0.56655
  Beta  occ. eigenvalues --   -0.53890  -0.52279  -0.50045  -0.47450  -0.44553
  Beta  occ. eigenvalues --   -0.43907  -0.40676  -0.40010  -0.39141  -0.38869
  Beta  occ. eigenvalues --   -0.37863  -0.37486  -0.35844  -0.34788  -0.34330
  Beta  occ. eigenvalues --   -0.33744  -0.32126  -0.31629  -0.29531  -0.28299
  Beta  occ. eigenvalues --   -0.27953  -0.27725  -0.24214
  Beta virt. eigenvalues --    0.05374   0.06514   0.07521   0.08569   0.10513
  Beta virt. eigenvalues --    0.13215   0.13600   0.14203   0.15648   0.15852
  Beta virt. eigenvalues --    0.16563   0.17663   0.18202   0.20486   0.21516
  Beta virt. eigenvalues --    0.22904   0.24806   0.27323   0.34881   0.36548
  Beta virt. eigenvalues --    0.38636   0.40086   0.42030   0.43222   0.44490
  Beta virt. eigenvalues --    0.45024   0.51898   0.56899   0.58839   0.59899
  Beta virt. eigenvalues --    0.62037   0.66489   0.72843   0.76355   0.76703
  Beta virt. eigenvalues --    0.77489   0.78938   0.79522   0.80560   0.81399
  Beta virt. eigenvalues --    0.83464   0.86326   0.87301   0.88600   0.89086
  Beta virt. eigenvalues --    0.90820   0.91569   0.91884   0.93786   0.94538
  Beta virt. eigenvalues --    0.96642   0.97395   1.00037   1.00911   1.01308
  Beta virt. eigenvalues --    1.02683   1.03956   1.04859   1.06348   1.07174
  Beta virt. eigenvalues --    1.09520   1.12754   1.14257   1.16025   1.16987
  Beta virt. eigenvalues --    1.19387   1.20564   1.21962   1.22458   1.25772
  Beta virt. eigenvalues --    1.30730   1.32017   1.36999   1.40053   1.42395
  Beta virt. eigenvalues --    1.45446   1.47708   1.50351   1.56779   1.57316
  Beta virt. eigenvalues --    1.58852   1.59078   1.60387   1.61877   1.66551
  Beta virt. eigenvalues --    1.68043   1.69604   1.72489   1.73533   1.75350
  Beta virt. eigenvalues --    1.78801   1.84010   1.84356   1.85854   1.86735
  Beta virt. eigenvalues --    1.87641   1.89145   1.90450   1.91644   1.95749
  Beta virt. eigenvalues --    1.98868   1.99465   2.03438   2.06062   2.06234
  Beta virt. eigenvalues --    2.08357   2.11419   2.12724   2.16478   2.17717
  Beta virt. eigenvalues --    2.21586   2.25234   2.33027   2.33750   2.36178
  Beta virt. eigenvalues --    2.36723   2.41216   2.42325   2.44307   2.45213
  Beta virt. eigenvalues --    2.49663   2.51398   2.52445   2.63303   2.64135
  Beta virt. eigenvalues --    2.64514   2.64619   2.65163   2.65822   2.67652
  Beta virt. eigenvalues --    2.71076   2.72722   2.73428   2.75707   2.76847
  Beta virt. eigenvalues --    2.80376   2.83377   2.85130   2.88660   2.94886
  Beta virt. eigenvalues --    3.02245   3.23237   3.36734   3.37976   3.38430
  Beta virt. eigenvalues --    3.39968   3.44401   3.45312   3.48372   3.53963
  Beta virt. eigenvalues --    3.58804   3.86368   3.90821   3.93396   4.02960
  Beta virt. eigenvalues --    4.08909   4.26846   4.29957   4.39412   4.60283
     Alpha Molecular Orbital Coefficients:
                           1         2         3         4         5
                           O         O         O         O         O
     Eigenvalues --   -77.19489 -77.18922 -19.16273 -19.15996 -19.15456
   1 1   C  1S         -0.00003  -0.00003  -0.00003  -0.00001  -0.00002
   2        2S         -0.00001  -0.00002  -0.00018  -0.00010  -0.00013
   3        2PX        -0.00005   0.00005   0.00000  -0.00007   0.00006
   4        2PY        -0.00000  -0.00000  -0.00007   0.00002   0.00001
   5        2PZ         0.00000  -0.00000  -0.00003   0.00005   0.00006
   6        3S          0.00079   0.00081   0.00151   0.00065   0.00078
   7        3PX        -0.00041   0.00041  -0.00068  -0.00027   0.00025
   8        3PY        -0.00021  -0.00023   0.00021  -0.00072  -0.00055
   9        3PZ         0.00006   0.00005   0.00040  -0.00028  -0.00017
  10        4XX        -0.00013  -0.00013  -0.00001   0.00007   0.00007
  11        4YY        -0.00010  -0.00010   0.00000   0.00000  -0.00000
  12        4ZZ        -0.00008  -0.00007  -0.00003  -0.00002  -0.00002
  13        4XY        -0.00004   0.00004   0.00002   0.00004  -0.00003
  14        4XZ         0.00002  -0.00002  -0.00002   0.00000   0.00000
  15        4YZ         0.00001   0.00000   0.00000  -0.00001   0.00000
  16 2   C  1S         -0.00001  -0.00002   0.00002  -0.00002  -0.00001
  17        2S         -0.00005  -0.00004   0.00010  -0.00013  -0.00010
  18        2PX         0.00002  -0.00002   0.00001  -0.00000   0.00001
  19        2PY         0.00003   0.00004   0.00001  -0.00000  -0.00000
  20        2PZ         0.00001   0.00001   0.00003  -0.00003  -0.00003
  21        3S          0.00015   0.00016  -0.00074   0.00086   0.00060
  22        3PX        -0.00002  -0.00000   0.00002  -0.00013   0.00010
  23        3PY         0.00012   0.00011   0.00041  -0.00036  -0.00022
  24        3PZ         0.00007   0.00006   0.00008  -0.00005  -0.00000
  25        4XX        -0.00002  -0.00002   0.00005  -0.00001   0.00002
  26        4YY        -0.00005  -0.00005  -0.00000  -0.00002  -0.00000
  27        4ZZ        -0.00004  -0.00004   0.00002  -0.00002  -0.00001
  28        4XY        -0.00000   0.00000  -0.00001   0.00002  -0.00002
  29        4XZ        -0.00001   0.00002  -0.00001   0.00001  -0.00001
  30        4YZ        -0.00000  -0.00000  -0.00002   0.00001   0.00001
  31 3   H  1S          0.00000   0.00000   0.00008  -0.00005  -0.00005
  32        2S         -0.00020  -0.00018  -0.00005  -0.00013  -0.00007
  33        3PX         0.00002  -0.00002  -0.00000   0.00001  -0.00000
  34        3PY         0.00003   0.00003  -0.00001   0.00002   0.00001
  35        3PZ         0.00001   0.00001   0.00001   0.00001   0.00000
  36 4   H  1S         -0.00001   0.00000   0.00002  -0.00002   0.00002
  37        2S          0.00001  -0.00021  -0.00001   0.00008  -0.00002
  38        3PX        -0.00000  -0.00001   0.00001  -0.00000   0.00002
  39        3PY        -0.00001   0.00004  -0.00002  -0.00000  -0.00000
  40        3PZ        -0.00001   0.00000  -0.00001  -0.00001  -0.00002
  41 5   H  1S         -0.00000  -0.00001   0.00002  -0.00000  -0.00002
  42        2S         -0.00022   0.00000  -0.00001   0.00003   0.00006
  43        3PX         0.00001   0.00000  -0.00002  -0.00002  -0.00000
  44        3PY         0.00004  -0.00001  -0.00001  -0.00001  -0.00000
  45        3PZ         0.00000  -0.00001  -0.00000  -0.00002  -0.00001
  46 6   O  1S          0.00000   0.00000   0.00001  -0.00005   0.00002
  47        2S          0.00000   0.00001  -0.00017  -0.00014  -0.00018
  48        2PX         0.00000  -0.00000   0.00002   0.00005  -0.00006
  49        2PY         0.00002   0.00001  -0.00000   0.00002   0.00002
  50        2PZ        -0.00001  -0.00001   0.00000  -0.00002  -0.00003
  51        3S         -0.00015  -0.00018   0.00076   0.00045   0.00063
  52        3PX         0.00009  -0.00007  -0.00011  -0.00028   0.00030
  53        3PY        -0.00000   0.00001  -0.00020  -0.00000  -0.00002
  54        3PZ        -0.00009  -0.00010  -0.00006   0.00016   0.00019
  55        4XX        -0.00001   0.00000  -0.00009  -0.00004  -0.00008
  56        4YY        -0.00000   0.00000  -0.00009  -0.00011  -0.00016
  57        4ZZ        -0.00001  -0.00000  -0.00013  -0.00009  -0.00013
  58        4XY         0.00003  -0.00004   0.00003   0.00005  -0.00004
  59        4XZ         0.00001  -0.00001   0.00001  -0.00003   0.00003
  60        4YZ        -0.00000  -0.00000  -0.00000   0.00000  -0.00001
  61 7   H  1S         -0.00001  -0.00002   0.00001  -0.00006  -0.00006
  62        2S         -0.00014  -0.00015  -0.00023   0.00031   0.00028
  63        3PX         0.00002  -0.00002   0.00002  -0.00001  -0.00000
  64        3PY         0.00001   0.00001  -0.00003   0.00002   0.00003
  65        3PZ        -0.00004  -0.00004  -0.00002   0.00002   0.00002
  66 8   P  1S         -0.00025   0.99625  -0.00000   0.00000   0.00001
  67        2S         -0.00001   0.01418  -0.00004   0.00001   0.00000
  68        2PX        -0.00001   0.00000   0.00001   0.00000  -0.00004
  69        2PY         0.00001   0.00001   0.00001   0.00000  -0.00005
  70        2PZ         0.00000  -0.00002   0.00001  -0.00000   0.00002
  71        3S          0.00009  -0.02723  -0.00016   0.00008   0.00035
  72        3PX         0.00009   0.00010  -0.00002  -0.00002  -0.00003
  73        3PY        -0.00008  -0.00008  -0.00009   0.00000   0.00017
  74        3PZ         0.00000   0.00003  -0.00009   0.00002  -0.00011
  75        4S          0.00009   0.00289   0.00103  -0.00043  -0.00337
  76        4PX         0.00005  -0.00014  -0.00052   0.00028  -0.00077
  77        4PY         0.00008   0.00007  -0.00005   0.00007  -0.00133
  78        4PZ        -0.00013   0.00004   0.00013  -0.00007   0.00202
  79        5XX        -0.00012   0.00943   0.00001  -0.00002   0.00015
  80        5YY        -0.00001   0.00947  -0.00004   0.00002   0.00011
  81        5ZZ        -0.00001   0.00948  -0.00001  -0.00001  -0.00011
  82        5XY         0.00002   0.00004   0.00004   0.00001   0.00014
  83        5XZ        -0.00001  -0.00002   0.00006  -0.00003  -0.00006
  84        5YZ         0.00001   0.00000  -0.00001   0.00001  -0.00009
  85 9   P  1S          0.99625   0.00025   0.00001   0.00001   0.00000
  86        2S          0.01418  -0.00000  -0.00001   0.00001   0.00002
  87        2PX        -0.00000   0.00001  -0.00002   0.00003  -0.00000
  88        2PY         0.00000   0.00001   0.00004  -0.00005  -0.00000
  89        2PZ        -0.00003  -0.00000   0.00005   0.00003  -0.00000
  90        3S         -0.02723   0.00008   0.00029   0.00040   0.00013
  91        3PX        -0.00009  -0.00010   0.00019   0.00005   0.00004
  92        3PY        -0.00008  -0.00007  -0.00004   0.00019   0.00002
  93        3PZ         0.00003   0.00002  -0.00016  -0.00011   0.00003
  94        4S          0.00289   0.00006  -0.00332  -0.00362  -0.00067
  95        4PX         0.00013  -0.00005  -0.00144   0.00046  -0.00043
  96        4PY         0.00008   0.00007   0.00058  -0.00109   0.00017
  97        4PZ         0.00005  -0.00015   0.00159   0.00220  -0.00003
  98        5XX         0.00943  -0.00011  -0.00001   0.00014  -0.00001
  99        5YY         0.00947  -0.00001   0.00010   0.00009   0.00002
 100        5ZZ         0.00949  -0.00001   0.00008  -0.00007  -0.00001
 101        5XY        -0.00003  -0.00002  -0.00004  -0.00012  -0.00001
 102        5XZ         0.00002   0.00000  -0.00002   0.00011   0.00002
 103        5YZ         0.00000   0.00001   0.00024  -0.00013   0.00000
 104 10  O  1S          0.00002  -0.00001  -0.00020  -0.00001   0.00022
 105        2S          0.00007  -0.00005   0.00004  -0.00002  -0.00023
 106        2PX        -0.00002  -0.00003  -0.00002   0.00000   0.00002
 107        2PY         0.00001  -0.00005  -0.00002   0.00002  -0.00004
 108        2PZ         0.00001  -0.00008   0.00002  -0.00002   0.00003
 109        3S         -0.00029   0.00077  -0.00031   0.00013   0.00148
 110        3PX         0.00012   0.00019   0.00011  -0.00002  -0.00015
 111        3PY        -0.00011   0.00014   0.00001  -0.00007   0.00052
 112        3PZ        -0.00008   0.00028  -0.00013   0.00007   0.00012
 113        4XX         0.00007   0.00003   0.00014  -0.00000  -0.00022
 114        4YY         0.00006  -0.00012   0.00008  -0.00002  -0.00013
 115        4ZZ         0.00006  -0.00019   0.00005  -0.00001  -0.00013
 116        4XY        -0.00001  -0.00002  -0.00003   0.00001  -0.00004
 117        4XZ         0.00000   0.00000   0.00000  -0.00001  -0.00001
 118        4YZ        -0.00002  -0.00014  -0.00001  -0.00000  -0.00000
 119 11  H  1S         -0.00004  -0.00010  -0.00007  -0.00001   0.00004
 120        2S         -0.00005  -0.00020  -0.00001  -0.00002   0.00040
 121        3PX         0.00002   0.00001   0.00004   0.00001  -0.00002
 122        3PY        -0.00001  -0.00001  -0.00003   0.00000   0.00005
 123        3PZ        -0.00000  -0.00001  -0.00000  -0.00001   0.00004
 124 12  O  1S          0.00000  -0.00001   0.00004   0.00001   0.99266
 125        2S          0.00001  -0.00005  -0.00002  -0.00001   0.02572
 126        2PX         0.00001   0.00005  -0.00000   0.00001  -0.00004
 127        2PY        -0.00000   0.00006   0.00000  -0.00000  -0.00008
 128        2PZ        -0.00000  -0.00005   0.00000  -0.00000   0.00085
 129        3S         -0.00008   0.00075   0.00008   0.00003   0.01312
 130        3PX        -0.00001  -0.00014   0.00002  -0.00006  -0.00066
 131        3PY         0.00002  -0.00020  -0.00002   0.00001  -0.00040
 132        3PZ         0.00002   0.00027  -0.00003   0.00001  -0.00035
 133        4XX         0.00001  -0.00016  -0.00002  -0.00000  -0.00831
 134        4YY         0.00001  -0.00011  -0.00002  -0.00001  -0.00832
 135        4ZZ         0.00001   0.00003  -0.00003  -0.00002  -0.00834
 136        4XY         0.00000  -0.00012  -0.00000   0.00000  -0.00003
 137        4XZ        -0.00000   0.00008   0.00000  -0.00000   0.00000
 138        4YZ        -0.00000   0.00006  -0.00000  -0.00000  -0.00000
 139 13  H  1S         -0.00000  -0.00012   0.00001   0.00001   0.00045
 140        2S         -0.00001  -0.00024   0.00000  -0.00002  -0.00087
 141        3PX         0.00000   0.00001  -0.00000   0.00000   0.00005
 142        3PY        -0.00000   0.00001  -0.00000  -0.00000   0.00004
 143        3PZ        -0.00000   0.00002  -0.00001  -0.00001  -0.00000
 144 14  O  1S         -0.00001   0.00002   0.99268  -0.00053  -0.00007
 145        2S         -0.00005   0.00008   0.02578  -0.00028  -0.00008
 146        2PX         0.00004   0.00002  -0.00079  -0.00002  -0.00001
 147        2PY        -0.00005   0.00002  -0.00002  -0.00004   0.00001
 148        2PZ        -0.00007   0.00000   0.00033   0.00003  -0.00002
 149        3S          0.00075  -0.00030   0.01285   0.00157   0.00039
 150        3PX        -0.00023  -0.00011   0.00034   0.00015   0.00006
 151        3PY         0.00015  -0.00011   0.00057   0.00058   0.00001
 152        3PZ         0.00024  -0.00005   0.00028   0.00006   0.00011
 153        4XX         0.00003   0.00006  -0.00830  -0.00025  -0.00005
 154        4YY        -0.00015   0.00006  -0.00828  -0.00014  -0.00006
 155        4ZZ        -0.00015   0.00006  -0.00828  -0.00015  -0.00004
 156        4XY         0.00004   0.00000  -0.00002   0.00003   0.00000
 157        4XZ         0.00001  -0.00000   0.00001  -0.00001   0.00001
 158        4YZ        -0.00014  -0.00001  -0.00004   0.00001   0.00000
 159 15  H  1S         -0.00011  -0.00003   0.00044   0.00005  -0.00001
 160        2S         -0.00021  -0.00004  -0.00089   0.00038   0.00001
 161        3PX        -0.00001  -0.00002  -0.00000   0.00002   0.00000
 162        3PY        -0.00001  -0.00001  -0.00004   0.00006   0.00000
 163        3PZ        -0.00001  -0.00000  -0.00003   0.00004  -0.00001
 164 16  O  1S         -0.00001   0.00000   0.00043   0.99267  -0.00002
 165        2S         -0.00005   0.00001  -0.00011   0.02571  -0.00001
 166        2PX        -0.00004  -0.00000   0.00000  -0.00007  -0.00001
 167        2PY         0.00005  -0.00000  -0.00003  -0.00001  -0.00001
 168        2PZ        -0.00006  -0.00001   0.00004   0.00087  -0.00000
 169        3S          0.00074  -0.00009   0.00082   0.01312   0.00001
 170        3PX         0.00011   0.00000   0.00022   0.00071   0.00005
 171        3PY        -0.00017   0.00002  -0.00003  -0.00041   0.00002
 172        3PZ         0.00030   0.00002  -0.00018  -0.00022  -0.00000
 173        4XX        -0.00014   0.00001  -0.00007  -0.00830  -0.00000
 174        4YY        -0.00009   0.00001  -0.00015  -0.00831  -0.00001
 175        4ZZ        -0.00000   0.00001  -0.00013  -0.00833  -0.00001
 176        4XY         0.00010  -0.00000   0.00003   0.00002  -0.00000
 177        4XZ        -0.00012   0.00000   0.00001  -0.00000   0.00000
 178        4YZ         0.00008  -0.00000  -0.00004   0.00001   0.00000
 179 17  H  1S         -0.00012  -0.00000   0.00008   0.00044   0.00001
 180        2S         -0.00024  -0.00001  -0.00027  -0.00087  -0.00006
 181        3PX        -0.00001  -0.00000   0.00000  -0.00006  -0.00001
 182        3PY         0.00001  -0.00000   0.00001   0.00004  -0.00000
 183        3PZ         0.00002  -0.00000  -0.00004  -0.00000  -0.00000
 184 18  O  1S          0.00001   0.00001  -0.00003  -0.00003  -0.00001
 185        2S         -0.00004   0.00003  -0.00000   0.00010  -0.00005
 186        2PX        -0.00001   0.00002  -0.00006   0.00003  -0.00000
 187        2PY        -0.00005   0.00000   0.00004  -0.00002   0.00001
 188        2PZ         0.00019  -0.00001  -0.00000  -0.00000   0.00001
 189        3S          0.00043  -0.00011   0.00005  -0.00052   0.00026
 190        3PX         0.00000  -0.00007   0.00029  -0.00015   0.00004
 191        3PY         0.00009  -0.00002  -0.00018   0.00016  -0.00002
 192        3PZ        -0.00040   0.00005  -0.00025  -0.00018  -0.00007
 193        4XX         0.00007   0.00002   0.00005   0.00007  -0.00004
 194        4YY         0.00005   0.00005  -0.00001   0.00011  -0.00002
 195        4ZZ        -0.00015   0.00002   0.00008   0.00014  -0.00002
 196        4XY        -0.00001  -0.00000  -0.00000   0.00002   0.00000
 197        4XZ         0.00004   0.00001  -0.00003   0.00001  -0.00000
 198        4YZ         0.00008   0.00001   0.00001  -0.00002   0.00001
 199 19  O  1S          0.00001   0.00002   0.00001  -0.00001  -0.00002
 200        2S          0.00004  -0.00004   0.00008  -0.00003   0.00012
 201        2PX        -0.00002  -0.00000   0.00001  -0.00001  -0.00003
 202        2PY         0.00001  -0.00007   0.00002   0.00000  -0.00001
 203        2PZ        -0.00000   0.00018   0.00000   0.00001  -0.00000
 204        3S         -0.00014   0.00043  -0.00045   0.00019  -0.00064
 205        3PX         0.00008   0.00003   0.00002   0.00001   0.00017
 206        3PY        -0.00003   0.00015  -0.00005   0.00001   0.00015
 207        3PZ         0.00005  -0.00038   0.00005  -0.00005  -0.00013
 208        4XX         0.00002   0.00007   0.00006  -0.00003   0.00009
 209        4YY         0.00005   0.00003   0.00004  -0.00001   0.00012
 210        4ZZ         0.00003  -0.00013   0.00005  -0.00001   0.00014
 211        4XY         0.00000   0.00001   0.00001   0.00000  -0.00002
 212        4XZ        -0.00001  -0.00002   0.00000   0.00000  -0.00002
 213        4YZ         0.00001   0.00011  -0.00001   0.00000  -0.00002
                           6         7         8         9        10
                           O         O         O         O         O
     Eigenvalues --   -19.15124 -19.14570 -19.09968 -19.09583 -10.23795
   1 1   C  1S         -0.00003  -0.00002   0.00000   0.00001   0.99321
   2        2S         -0.00016   0.00010  -0.00002  -0.00001   0.04997
   3        2PX        -0.00001   0.00000  -0.00003   0.00003  -0.00002
   4        2PY        -0.00005   0.00013   0.00000   0.00001   0.00034
   5        2PZ        -0.00005  -0.00031  -0.00005  -0.00006  -0.00073
   6        3S          0.00136  -0.00086  -0.00015  -0.00029  -0.01976
   7        3PX         0.00082   0.00000  -0.00013   0.00005   0.00003
   8        3PY         0.00024  -0.00061  -0.00031  -0.00049  -0.00156
   9        3PZ         0.00019   0.00087   0.00036   0.00041   0.00047
  10        4XX        -0.00001   0.00003   0.00004   0.00004  -0.00874
  11        4YY         0.00001   0.00004   0.00001   0.00002  -0.00866
  12        4ZZ        -0.00001   0.00020   0.00001   0.00001  -0.00844
  13        4XY        -0.00003   0.00000   0.00004  -0.00004  -0.00001
  14        4XZ         0.00003   0.00000  -0.00002   0.00001   0.00000
  15        4YZ        -0.00001  -0.00009  -0.00003  -0.00003  -0.00004
  16 2   C  1S          0.00002   0.00000  -0.00003  -0.00003   0.00166
  17        2S          0.00009   0.00008  -0.00012  -0.00013  -0.00019
  18        2PX        -0.00002   0.00000   0.00007  -0.00006  -0.00000
  19        2PY         0.00001   0.00002   0.00004   0.00004  -0.00006
  20        2PZ         0.00003  -0.00010  -0.00001  -0.00002   0.00006
  21        3S         -0.00064   0.00032   0.00046   0.00059   0.00537
  22        3PX        -0.00000   0.00001  -0.00051   0.00047  -0.00001
  23        3PY         0.00035  -0.00029  -0.00036  -0.00039  -0.00123
  24        3PZ         0.00008   0.00043  -0.00005  -0.00016  -0.00188
  25        4XX         0.00004   0.00001  -0.00006  -0.00008  -0.00009
  26        4YY        -0.00000  -0.00000  -0.00005  -0.00006  -0.00034
  27        4ZZ         0.00001  -0.00008  -0.00004  -0.00004  -0.00020
  28        4XY         0.00001  -0.00000  -0.00000   0.00000   0.00000
  29        4XZ         0.00002   0.00000   0.00000  -0.00000   0.00000
  30        4YZ        -0.00002  -0.00002   0.00001   0.00002  -0.00014
  31 3   H  1S          0.00007  -0.00005  -0.00006  -0.00008  -0.00005
  32        2S         -0.00005  -0.00035   0.00012   0.00023  -0.00001
  33        3PX         0.00000   0.00000   0.00001  -0.00001  -0.00000
  34        3PY        -0.00000   0.00003  -0.00001  -0.00001   0.00001
  35        3PZ         0.00000   0.00001  -0.00000  -0.00001  -0.00002
  36 4   H  1S          0.00001   0.00006   0.00004  -0.00006  -0.00021
  37        2S         -0.00001   0.00012   0.00030  -0.00019  -0.00054
  38        3PX         0.00001   0.00000  -0.00002  -0.00002   0.00002
  39        3PY        -0.00001  -0.00001  -0.00002   0.00003  -0.00004
  40        3PZ         0.00000  -0.00005   0.00001   0.00000  -0.00000
  41 5   H  1S          0.00002   0.00006  -0.00008   0.00003  -0.00021
  42        2S         -0.00000   0.00014  -0.00011   0.00028  -0.00057
  43        3PX        -0.00001   0.00000   0.00002   0.00002  -0.00002
  44        3PY        -0.00001  -0.00001   0.00002  -0.00002  -0.00004
  45        3PZ        -0.00000  -0.00005   0.00000   0.00002  -0.00001
  46 6   O  1S          0.00008   0.99275   0.00003   0.00003  -0.00015
  47        2S         -0.00008   0.02587   0.00006   0.00005  -0.00040
  48        2PX        -0.00001   0.00005  -0.00004   0.00003   0.00000
  49        2PY        -0.00002  -0.00094  -0.00002  -0.00002   0.00005
  50        2PZ         0.00003   0.00022   0.00002   0.00002  -0.00014
  51        3S          0.00042   0.01208  -0.00009  -0.00001   0.00389
  52        3PX         0.00011   0.00001   0.00016  -0.00013  -0.00002
  53        3PY        -0.00013  -0.00018   0.00008   0.00008  -0.00001
  54        3PZ        -0.00020   0.00044  -0.00002   0.00002   0.00080
  55        4XX        -0.00003  -0.00807   0.00005   0.00005  -0.00014
  56        4YY        -0.00003  -0.00801   0.00006   0.00005  -0.00028
  57        4ZZ        -0.00009  -0.00813   0.00007   0.00007  -0.00082
  58        4XY        -0.00003  -0.00001  -0.00001   0.00001   0.00000
  59        4XZ        -0.00002  -0.00000   0.00001  -0.00001   0.00000
  60        4YZ         0.00001   0.00009   0.00001   0.00001   0.00021
  61 7   H  1S          0.00003   0.00028   0.00004   0.00005   0.00009
  62        2S         -0.00039  -0.00127  -0.00020  -0.00019  -0.00028
  63        3PX        -0.00005   0.00001  -0.00000   0.00001  -0.00000
  64        3PY        -0.00002  -0.00013  -0.00001  -0.00001  -0.00001
  65        3PZ        -0.00005  -0.00015  -0.00002  -0.00002   0.00012
  66 8   P  1S          0.00001   0.00000  -0.00000   0.00002   0.00000
  67        2S         -0.00000   0.00004  -0.00004  -0.00007  -0.00008
  68        2PX         0.00002   0.00000  -0.00000   0.00001   0.00002
  69        2PY         0.00003  -0.00000   0.00000  -0.00002  -0.00002
  70        2PZ         0.00005  -0.00000   0.00000   0.00000   0.00001
  71        3S          0.00029   0.00028  -0.00015   0.00084  -0.00003
  72        3PX        -0.00018  -0.00009   0.00006  -0.00009  -0.00044
  73        3PY        -0.00002   0.00005  -0.00004   0.00006   0.00033
  74        3PZ        -0.00016  -0.00002  -0.00004   0.00015  -0.00011
  75        4S         -0.00347  -0.00094   0.00071  -0.00305   0.00389
  76        4PX         0.00143   0.00012  -0.00041   0.00037  -0.00087
  77        4PY         0.00051  -0.00048  -0.00024   0.00061   0.00154
  78        4PZ         0.00161   0.00038  -0.00021  -0.00234  -0.00116
  79        5XX         0.00001  -0.00002  -0.00005  -0.00027  -0.00002
  80        5YY         0.00005   0.00003  -0.00003  -0.00024  -0.00003
  81        5ZZ         0.00014  -0.00004  -0.00001  -0.00016  -0.00000
  82        5XY         0.00003  -0.00003  -0.00000  -0.00003  -0.00006
  83        5XZ        -0.00002   0.00000   0.00000  -0.00001  -0.00004
  84        5YZ         0.00025   0.00002   0.00001  -0.00006  -0.00009
  85 9   P  1S         -0.00000   0.00000   0.00002  -0.00000   0.00000
  86        2S         -0.00007   0.00005  -0.00007  -0.00004  -0.00008
  87        2PX        -0.00000  -0.00000  -0.00001   0.00000  -0.00002
  88        2PY         0.00001  -0.00001  -0.00001   0.00000  -0.00002
  89        2PZ         0.00001  -0.00000   0.00000  -0.00000   0.00001
  90        3S         -0.00023   0.00029   0.00086  -0.00015  -0.00003
  91        3PX        -0.00004   0.00006   0.00009  -0.00005   0.00046
  92        3PY        -0.00008   0.00010   0.00006  -0.00003   0.00030
  93        3PZ         0.00001  -0.00000   0.00015   0.00000  -0.00010
  94        4S          0.00169  -0.00099  -0.00314   0.00053   0.00396
  95        4PX         0.00084  -0.00021  -0.00019   0.00032   0.00110
  96        4PY        -0.00013  -0.00037   0.00028  -0.00026   0.00134
  97        4PZ        -0.00007   0.00040  -0.00245  -0.00029  -0.00109
  98        5XX        -0.00003  -0.00002  -0.00026  -0.00003  -0.00004
  99        5YY        -0.00006   0.00004  -0.00025  -0.00002  -0.00005
 100        5ZZ        -0.00002  -0.00005  -0.00015  -0.00002   0.00002
 101        5XY        -0.00003   0.00002   0.00003  -0.00001   0.00008
 102        5XZ        -0.00004   0.00000  -0.00000   0.00001   0.00002
 103        5YZ        -0.00000  -0.00000  -0.00004   0.00001  -0.00008
 104 10  O  1S          0.99266  -0.00013   0.00005   0.00004   0.00004
 105        2S          0.02578  -0.00012   0.00013   0.00001   0.00017
 106        2PX         0.00072   0.00002  -0.00001   0.00001   0.00005
 107        2PY        -0.00000  -0.00001   0.00000   0.00005  -0.00001
 108        2PZ         0.00035   0.00002   0.00002  -0.00004  -0.00003
 109        3S          0.01293   0.00054  -0.00063  -0.00011  -0.00115
 110        3PX        -0.00038  -0.00014   0.00010  -0.00007  -0.00015
 111        3PY         0.00049   0.00019  -0.00007  -0.00019  -0.00017
 112        3PZ         0.00036  -0.00006  -0.00016   0.00035   0.00001
 113        4XX        -0.00834  -0.00008   0.00010   0.00002   0.00010
 114        4YY        -0.00830  -0.00007   0.00010   0.00000   0.00010
 115        4ZZ        -0.00831  -0.00009   0.00009   0.00007   0.00012
 116        4XY         0.00002   0.00000  -0.00000  -0.00001  -0.00010
 117        4XZ         0.00000   0.00001   0.00001  -0.00000   0.00002
 118        4YZ        -0.00004  -0.00000  -0.00001   0.00003   0.00002
 119 11  H  1S          0.00045   0.00002  -0.00000  -0.00001   0.00008
 120        2S         -0.00092   0.00006  -0.00006   0.00004   0.00004
 121        3PX        -0.00001  -0.00002   0.00002  -0.00000   0.00001
 122        3PY        -0.00003   0.00000  -0.00001   0.00001   0.00001
 123        3PZ        -0.00004   0.00002   0.00000   0.00000  -0.00000
 124 12  O  1S         -0.00031  -0.00010  -0.00001   0.00007   0.00004
 125        2S         -0.00009  -0.00016  -0.00002   0.00003   0.00020
 126        2PX        -0.00001   0.00003   0.00000  -0.00000   0.00002
 127        2PY        -0.00004   0.00000   0.00001   0.00000  -0.00002
 128        2PZ         0.00002  -0.00000  -0.00001  -0.00005  -0.00003
 129        3S          0.00064   0.00076   0.00008  -0.00015  -0.00125
 130        3PX        -0.00016  -0.00022  -0.00001  -0.00006   0.00029
 131        3PY         0.00002  -0.00006  -0.00002  -0.00010   0.00019
 132        3PZ        -0.00017  -0.00004   0.00004   0.00037   0.00018
 133        4XX        -0.00003  -0.00008  -0.00001   0.00008   0.00014
 134        4YY        -0.00012  -0.00011  -0.00002   0.00007   0.00010
 135        4ZZ        -0.00010  -0.00011  -0.00002   0.00006   0.00006
 136        4XY        -0.00003  -0.00000   0.00000   0.00001  -0.00004
 137        4XZ        -0.00001   0.00001  -0.00001  -0.00002   0.00001
 138        4YZ        -0.00004   0.00001  -0.00001   0.00001  -0.00005
 139 13  H  1S          0.00007  -0.00002  -0.00001  -0.00010   0.00004
 140        2S         -0.00028   0.00007   0.00008   0.00029  -0.00035
 141        3PX         0.00000   0.00000  -0.00000  -0.00002   0.00004
 142        3PY         0.00002  -0.00000  -0.00000  -0.00001   0.00000
 143        3PZ        -0.00003  -0.00001  -0.00000   0.00004  -0.00000
 144 14  O  1S          0.00026  -0.00009   0.00005   0.00003   0.00005
 145        2S          0.00012  -0.00014   0.00003   0.00010   0.00019
 146        2PX         0.00001  -0.00002  -0.00001  -0.00000  -0.00004
 147        2PY        -0.00001  -0.00002   0.00005   0.00001  -0.00003
 148        2PZ         0.00002   0.00002  -0.00005   0.00000  -0.00002
 149        3S         -0.00068   0.00065  -0.00016  -0.00051  -0.00124
 150        3PX        -0.00007   0.00014   0.00002  -0.00002   0.00010
 151        3PY        -0.00008   0.00023  -0.00016  -0.00010  -0.00014
 152        3PZ        -0.00016  -0.00004   0.00039  -0.00006   0.00002
 153        4XX         0.00017  -0.00011   0.00004   0.00006   0.00012
 154        4YY         0.00011  -0.00009   0.00003   0.00006   0.00014
 155        4ZZ         0.00009  -0.00011   0.00008   0.00006   0.00013
 156        4XY         0.00003  -0.00000   0.00001  -0.00001   0.00009
 157        4XZ        -0.00000  -0.00000   0.00000   0.00000  -0.00003
 158        4YZ        -0.00000  -0.00000   0.00004   0.00000   0.00003
 159 15  H  1S         -0.00003   0.00003  -0.00003   0.00003   0.00006
 160        2S         -0.00005   0.00006   0.00005  -0.00008   0.00009
 161        3PX        -0.00004   0.00002  -0.00001  -0.00000  -0.00001
 162        3PY        -0.00003   0.00001   0.00001   0.00000   0.00000
 163        3PZ        -0.00000   0.00001   0.00000  -0.00000  -0.00000
 164 16  O  1S          0.00001  -0.00000   0.00007  -0.00000   0.00003
 165        2S          0.00001  -0.00012   0.00003  -0.00001   0.00015
 166        2PX         0.00001  -0.00001   0.00000  -0.00001  -0.00003
 167        2PY         0.00000   0.00000  -0.00000   0.00000  -0.00002
 168        2PZ        -0.00001  -0.00001  -0.00005  -0.00001  -0.00003
 169        3S         -0.00007   0.00059  -0.00012   0.00003  -0.00100
 170        3PX        -0.00008   0.00015   0.00004   0.00001  -0.00022
 171        3PY        -0.00001  -0.00002  -0.00004   0.00001   0.00018
 172        3PZ         0.00002   0.00002   0.00039   0.00007   0.00011
 173        4XX         0.00001  -0.00005   0.00007  -0.00001   0.00011
 174        4YY         0.00001  -0.00007   0.00007  -0.00001   0.00004
 175        4ZZ         0.00000  -0.00006   0.00005  -0.00000   0.00002
 176        4XY         0.00000  -0.00000  -0.00001   0.00000   0.00005
 177        4XZ         0.00000  -0.00002   0.00002   0.00001  -0.00000
 178        4YZ        -0.00001   0.00002   0.00000  -0.00001  -0.00005
 179 17  H  1S         -0.00002  -0.00005  -0.00010  -0.00002   0.00005
 180        2S          0.00006   0.00004   0.00028   0.00008  -0.00031
 181        3PX         0.00000  -0.00001   0.00001   0.00000  -0.00004
 182        3PY        -0.00000   0.00000  -0.00001  -0.00001  -0.00000
 183        3PZ         0.00000   0.00001   0.00004  -0.00000  -0.00002
 184 18  O  1S          0.00001  -0.00000   0.99271  -0.00000   0.00001
 185        2S          0.00015   0.00003   0.02558  -0.00004   0.00006
 186        2PX         0.00003   0.00000   0.00007  -0.00000   0.00002
 187        2PY        -0.00000  -0.00001   0.00022  -0.00001   0.00003
 188        2PZ        -0.00002  -0.00001  -0.00077  -0.00001   0.00001
 189        3S         -0.00075  -0.00014   0.01298   0.00017  -0.00028
 190        3PX        -0.00016   0.00001   0.00016   0.00001  -0.00022
 191        3PY        -0.00001   0.00005   0.00024   0.00008  -0.00026
 192        3PZ         0.00017  -0.00001  -0.00052   0.00003   0.00012
 193        4XX         0.00012   0.00003  -0.00822  -0.00001   0.00002
 194        4YY         0.00010   0.00004  -0.00821  -0.00004  -0.00001
 195        4ZZ         0.00009   0.00004  -0.00818  -0.00004   0.00000
 196        4XY        -0.00000  -0.00001   0.00000  -0.00000   0.00002
 197        4XZ         0.00002   0.00000  -0.00001   0.00001   0.00004
 198        4YZ        -0.00001  -0.00000  -0.00002  -0.00001   0.00002
 199 19  O  1S         -0.00004   0.00000  -0.00001   0.99271  -0.00000
 200        2S         -0.00005   0.00004  -0.00002   0.02560   0.00002
 201        2PX         0.00005  -0.00000   0.00001  -0.00002  -0.00002
 202        2PY         0.00004  -0.00001  -0.00001   0.00033   0.00003
 203        2PZ         0.00001  -0.00001  -0.00001  -0.00073   0.00001
 204        3S          0.00029  -0.00018   0.00003   0.01292  -0.00008
 205        3PX        -0.00027   0.00000  -0.00003  -0.00010   0.00021
 206        3PY        -0.00015   0.00006   0.00007   0.00031  -0.00025
 207        3PZ        -0.00034   0.00001   0.00005  -0.00048   0.00008
 208        4XX         0.00001   0.00003   0.00001  -0.00821  -0.00000
 209        4YY        -0.00004   0.00005  -0.00003  -0.00819  -0.00004
 210        4ZZ         0.00006   0.00004  -0.00003  -0.00817  -0.00003
 211        4XY        -0.00000   0.00001   0.00000  -0.00000  -0.00001
 212        4XZ         0.00003  -0.00000  -0.00000   0.00000  -0.00004
 213        4YZ        -0.00001  -0.00001  -0.00002  -0.00002   0.00002
                          11        12        13        14        15
                           O         O         O         O         O
     Eigenvalues --   -10.17771  -6.64477  -6.63919  -4.80928  -4.80779
   1 1   C  1S         -0.00185   0.00011   0.00011   0.00001  -0.00006
   2        2S         -0.00011   0.00073   0.00075   0.00009   0.00012
   3        2PX         0.00001   0.00004  -0.00005  -0.00022   0.00017
   4        2PY        -0.00012  -0.00007  -0.00009   0.00039  -0.00004
   5        2PZ        -0.00002   0.00013   0.00012   0.00009   0.00032
   6        3S          0.00352  -0.00387  -0.00396  -0.00097   0.00132
   7        3PX         0.00001   0.00195  -0.00197   0.00143  -0.00063
   8        3PY         0.00225   0.00063   0.00081  -0.00374   0.00075
   9        3PZ         0.00107  -0.00051  -0.00039  -0.00072  -0.00459
  10        4XX        -0.00010   0.00011   0.00010  -0.00013  -0.00013
  11        4YY        -0.00030   0.00020   0.00022   0.00012  -0.00018
  12        4ZZ        -0.00017   0.00016   0.00017  -0.00008   0.00014
  13        4XY         0.00000  -0.00009   0.00010   0.00015  -0.00007
  14        4XZ        -0.00000  -0.00001   0.00001   0.00013   0.00038
  15        4YZ        -0.00008   0.00000   0.00001  -0.00013   0.00004
  16 2   C  1S          0.99298  -0.00000   0.00000   0.00004   0.00000
  17        2S          0.05015  -0.00010  -0.00009   0.00001  -0.00010
  18        2PX        -0.00003   0.00004  -0.00005  -0.00006  -0.00001
  19        2PY        -0.00025  -0.00007  -0.00007  -0.00022  -0.00007
  20        2PZ        -0.00002  -0.00005  -0.00005  -0.00008  -0.00005
  21        3S         -0.01761   0.00055   0.00041   0.00124   0.00076
  22        3PX         0.00009  -0.00114   0.00123  -0.00001  -0.00032
  23        3PY         0.00186  -0.00137  -0.00123  -0.00105  -0.00164
  24        3PZ         0.00086  -0.00024  -0.00024  -0.00130   0.00064
  25        4XX        -0.00882   0.00001   0.00003   0.00016   0.00002
  26        4YY        -0.00903   0.00016   0.00017   0.00018   0.00029
  27        4ZZ        -0.00886   0.00001   0.00001   0.00016  -0.00009
  28        4XY         0.00000   0.00010  -0.00010   0.00013   0.00004
  29        4XZ        -0.00000   0.00009  -0.00009   0.00004  -0.00001
  30        4YZ        -0.00016   0.00004   0.00003   0.00011  -0.00007
  31 3   H  1S         -0.00001  -0.00014  -0.00012  -0.00001  -0.00023
  32        2S          0.00228   0.00058   0.00057   0.00101   0.00053
  33        3PX        -0.00000  -0.00000  -0.00000  -0.00006  -0.00008
  34        3PY        -0.00011  -0.00003  -0.00003  -0.00002  -0.00010
  35        3PZ         0.00023  -0.00006  -0.00006  -0.00004  -0.00009
  36 4   H  1S         -0.00009   0.00011  -0.00017  -0.00002   0.00007
  37        2S          0.00232   0.00067   0.00057  -0.00013   0.00046
  38        3PX         0.00019  -0.00000  -0.00001   0.00006  -0.00002
  39        3PY         0.00006   0.00003  -0.00009   0.00003   0.00007
  40        3PZ        -0.00009   0.00004  -0.00004   0.00002  -0.00003
  41 5   H  1S         -0.00007  -0.00016   0.00012  -0.00016   0.00003
  42        2S          0.00235   0.00067   0.00066   0.00134   0.00059
  43        3PX        -0.00019   0.00002  -0.00000  -0.00003   0.00002
  44        3PY         0.00006  -0.00010   0.00003  -0.00019   0.00001
  45        3PZ        -0.00009  -0.00004   0.00005   0.00002  -0.00001
  46 6   O  1S          0.00000  -0.00007  -0.00007  -0.00003   0.00002
  47        2S         -0.00004  -0.00034  -0.00037  -0.00010   0.00016
  48        2PX         0.00000   0.00011  -0.00011   0.00006   0.00010
  49        2PY        -0.00006   0.00002   0.00002  -0.00009   0.00009
  50        2PZ        -0.00007  -0.00001  -0.00001  -0.00002  -0.00004
  51        3S         -0.00029   0.00165   0.00182   0.00065  -0.00207
  52        3PX        -0.00000  -0.00092   0.00087  -0.00045  -0.00028
  53        3PY         0.00029  -0.00028  -0.00035   0.00084  -0.00021
  54        3PZ         0.00024   0.00072   0.00072   0.00038  -0.00105
  55        4XX        -0.00012  -0.00014  -0.00017  -0.00000   0.00001
  56        4YY         0.00003  -0.00021  -0.00022  -0.00028   0.00005
  57        4ZZ         0.00009  -0.00016  -0.00017  -0.00002  -0.00011
  58        4XY         0.00000   0.00003  -0.00002   0.00000   0.00007
  59        4XZ         0.00000  -0.00015   0.00015  -0.00009  -0.00002
  60        4YZ         0.00006  -0.00008  -0.00008   0.00009   0.00004
  61 7   H  1S          0.00013  -0.00008  -0.00008   0.00019  -0.00014
  62        2S          0.00022   0.00074   0.00067  -0.00025  -0.00045
  63        3PX        -0.00000  -0.00004   0.00003   0.00008   0.00007
  64        3PY        -0.00001   0.00002  -0.00001   0.00010  -0.00001
  65        3PZ         0.00004   0.00012   0.00012  -0.00006  -0.00008
  66 8   P  1S         -0.00000   0.00001  -0.27419   0.00000  -0.00000
  67        2S         -0.00009  -0.00015   1.02396   0.00002  -0.00002
  68        2PX        -0.00001   0.00003   0.00342   0.00040  -0.00073
  69        2PY        -0.00000  -0.00001  -0.00067  -0.00013   0.00024
  70        2PZ        -0.00002  -0.00001  -0.00313   0.00030   0.00090
  71        3S         -0.00026  -0.00055   0.07542   0.00035  -0.00027
  72        3PX         0.00017  -0.00018  -0.00012   0.00055  -0.00044
  73        3PY        -0.00011   0.00009   0.00040  -0.00042   0.00026
  74        3PZ         0.00018   0.00005  -0.00070   0.00008   0.00012
  75        4S          0.00158   0.00149  -0.01289  -0.00171   0.00154
  76        4PX        -0.00026  -0.00165   0.00184   0.00104  -0.00132
  77        4PY         0.00098  -0.00086  -0.00100   0.00066  -0.00031
  78        4PZ         0.00047   0.00067   0.00047   0.00022   0.00159
  79        5XX        -0.00010   0.00034  -0.01733  -0.00046   0.00042
  80        5YY        -0.00006  -0.00011  -0.01726   0.00001   0.00002
  81        5ZZ        -0.00007  -0.00005  -0.01705  -0.00002  -0.00008
  82        5XY         0.00003  -0.00006   0.00019   0.00006  -0.00012
  83        5XZ        -0.00003   0.00001   0.00002  -0.00011  -0.00016
  84        5YZ        -0.00001  -0.00000   0.00008   0.00008   0.00008
  85 9   P  1S         -0.00000  -0.27419  -0.00003  -0.00019  -0.00143
  86        2S         -0.00010   1.02396  -0.00001   0.00074   0.00577
  87        2PX         0.00002  -0.00335  -0.00003  -0.47508   0.55015
  88        2PY        -0.00001  -0.00166  -0.00001   0.83749   0.07936
  89        2PZ        -0.00001  -0.00373  -0.00000   0.23727   0.82113
  90        3S         -0.00032   0.07546  -0.00056  -0.00006   0.00039
  91        3PX        -0.00024   0.00012   0.00017  -0.01501   0.01700
  92        3PY        -0.00004   0.00026   0.00010   0.02608   0.00230
  93        3PZ         0.00014  -0.00076   0.00005   0.00781   0.02642
  94        4S          0.00176  -0.01314   0.00159  -0.00017  -0.00559
  95        4PX         0.00018  -0.00187   0.00161   0.00345  -0.00485
  96        4PY         0.00121  -0.00101  -0.00075  -0.00595  -0.00227
  97        4PZ         0.00040   0.00056   0.00080  -0.00162  -0.00243
  98        5XX        -0.00010  -0.01735   0.00035   0.00126   0.00004
  99        5YY        -0.00006  -0.01723  -0.00012  -0.00029  -0.00026
 100        5ZZ        -0.00006  -0.01709  -0.00004  -0.00073   0.00067
 101        5XY        -0.00003  -0.00019   0.00006  -0.00102   0.00103
 102        5XZ         0.00004  -0.00003  -0.00000   0.00063  -0.00124
 103        5YZ        -0.00001   0.00012  -0.00001  -0.00191  -0.00114
 104 10  O  1S         -0.00002  -0.00001  -0.00005   0.00005  -0.00001
 105        2S         -0.00009  -0.00001   0.00045   0.00016  -0.00007
 106        2PX         0.00002   0.00005   0.00009  -0.00014  -0.00001
 107        2PY         0.00000  -0.00005   0.00016   0.00005  -0.00002
 108        2PZ        -0.00003  -0.00000   0.00029   0.00004   0.00003
 109        3S          0.00038  -0.00019  -0.00294  -0.00028   0.00034
 110        3PX        -0.00015  -0.00022  -0.00104   0.00081   0.00003
 111        3PY         0.00005   0.00033  -0.00082  -0.00043   0.00022
 112        3PZ         0.00016   0.00002  -0.00174  -0.00023  -0.00007
 113        4XX        -0.00009  -0.00005  -0.00005   0.00025  -0.00004
 114        4YY        -0.00007  -0.00003   0.00039   0.00019  -0.00003
 115        4ZZ        -0.00006  -0.00004   0.00048   0.00016  -0.00005
 116        4XY        -0.00000   0.00005   0.00010  -0.00004   0.00004
 117        4XZ        -0.00000   0.00001  -0.00003  -0.00001  -0.00001
 118        4YZ         0.00002   0.00007   0.00014  -0.00008   0.00003
 119 11  H  1S          0.00002   0.00014   0.00054  -0.00035  -0.00003
 120        2S          0.00018   0.00026   0.00090  -0.00017   0.00030
 121        3PX        -0.00002  -0.00006  -0.00007   0.00012  -0.00001
 122        3PY         0.00002   0.00003   0.00016  -0.00006   0.00002
 123        3PZ         0.00000   0.00002   0.00019  -0.00001   0.00003
 124 12  O  1S          0.00003  -0.00003  -0.00004   0.00001  -0.00003
 125        2S          0.00015  -0.00013   0.00047   0.00004  -0.00012
 126        2PX        -0.00003  -0.00004  -0.00014   0.00000  -0.00005
 127        2PY         0.00000   0.00004  -0.00023  -0.00001   0.00004
 128        2PZ        -0.00001   0.00002   0.00018   0.00001   0.00005
 129        3S         -0.00069   0.00075  -0.00317  -0.00023   0.00073
 130        3PX         0.00034   0.00006   0.00077  -0.00000   0.00012
 131        3PY         0.00005  -0.00023   0.00133   0.00003  -0.00019
 132        3PZ         0.00006  -0.00012  -0.00156  -0.00005  -0.00027
 133        4XX         0.00007  -0.00009   0.00046   0.00002  -0.00008
 134        4YY         0.00010  -0.00008   0.00034   0.00004  -0.00007
 135        4ZZ         0.00012  -0.00009  -0.00010   0.00002  -0.00010
 136        4XY         0.00001  -0.00000   0.00008   0.00002  -0.00001
 137        4XZ         0.00003   0.00000  -0.00025  -0.00000   0.00002
 138        4YZ         0.00003   0.00000  -0.00017  -0.00000   0.00002
 139 13  H  1S         -0.00002   0.00000   0.00070   0.00004   0.00008
 140        2S         -0.00039   0.00021   0.00113  -0.00019  -0.00014
 141        3PX         0.00005  -0.00003  -0.00022   0.00001  -0.00001
 142        3PY         0.00003   0.00000  -0.00021   0.00001   0.00002
 143        3PZ         0.00003  -0.00000  -0.00010  -0.00000   0.00000
 144 14  O  1S         -0.00003  -0.00005  -0.00002   0.00030   0.00001
 145        2S         -0.00012   0.00044  -0.00007  -0.00075  -0.00150
 146        2PX        -0.00002  -0.00012  -0.00008   0.00004   0.00015
 147        2PY        -0.00001   0.00018  -0.00006  -0.00039  -0.00042
 148        2PZ        -0.00003   0.00027   0.00001  -0.00043  -0.00026
 149        3S          0.00048  -0.00287   0.00002   0.00343   0.00727
 150        3PX         0.00015   0.00118   0.00038  -0.00069  -0.00149
 151        3PY         0.00010  -0.00095   0.00040   0.00199   0.00248
 152        3PZ         0.00018  -0.00159  -0.00004   0.00258   0.00144
 153        4XX        -0.00011  -0.00006  -0.00008   0.00010  -0.00037
 154        4YY        -0.00009   0.00040  -0.00008  -0.00031  -0.00050
 155        4ZZ        -0.00008   0.00043  -0.00011   0.00003  -0.00122
 156        4XY         0.00000  -0.00015  -0.00005   0.00032  -0.00011
 157        4XZ         0.00000   0.00001  -0.00001   0.00013  -0.00020
 158        4YZ         0.00002   0.00014   0.00006   0.00005  -0.00005
 159 15  H  1S          0.00002   0.00054   0.00019  -0.00050  -0.00066
 160        2S          0.00021   0.00092   0.00024  -0.00076  -0.00142
 161        3PX         0.00003   0.00006   0.00006  -0.00010   0.00004
 162        3PY         0.00002   0.00019   0.00004  -0.00025  -0.00032
 163        3PZ         0.00000   0.00017   0.00002  -0.00029  -0.00015
 164 16  O  1S          0.00005  -0.00005  -0.00003  -0.00018   0.00013
 165        2S          0.00023   0.00042  -0.00011   0.00111  -0.00107
 166        2PX         0.00005   0.00012   0.00004   0.00031  -0.00049
 167        2PY         0.00001  -0.00021   0.00004  -0.00026   0.00034
 168        2PZ         0.00001   0.00022   0.00002   0.00031  -0.00007
 169        3S         -0.00101  -0.00294   0.00067  -0.00506   0.00515
 170        3PX        -0.00048  -0.00056  -0.00005  -0.00153   0.00297
 171        3PY         0.00005   0.00115  -0.00023   0.00117  -0.00228
 172        3PZ        -0.00005  -0.00177  -0.00008  -0.00271   0.00034
 173        4XX         0.00013   0.00038  -0.00008   0.00035  -0.00043
 174        4YY         0.00017   0.00027  -0.00007   0.00069  -0.00012
 175        4ZZ         0.00017  -0.00004  -0.00007  -0.00010  -0.00058
 176        4XY        -0.00002  -0.00002   0.00000   0.00009  -0.00021
 177        4XZ        -0.00005   0.00033  -0.00000   0.00005  -0.00036
 178        4YZ         0.00003  -0.00020  -0.00000  -0.00010   0.00018
 179 17  H  1S          0.00000   0.00068  -0.00001   0.00092  -0.00010
 180        2S         -0.00046   0.00115   0.00023   0.00216   0.00033
 181        3PX        -0.00005   0.00023   0.00003   0.00035  -0.00013
 182        3PY         0.00004  -0.00021   0.00000  -0.00023   0.00016
 183        3PZ         0.00004  -0.00006   0.00000  -0.00000  -0.00006
 184 18  O  1S          0.00006  -0.00024   0.00003  -0.00005  -0.00061
 185        2S          0.00026   0.00045   0.00015   0.00007   0.00085
 186        2PX         0.00003   0.00003  -0.00003  -0.00007   0.00022
 187        2PY         0.00007   0.00021  -0.00003   0.00016   0.00034
 188        2PZ        -0.00001  -0.00085  -0.00001  -0.00005  -0.00113
 189        3S         -0.00126  -0.00235  -0.00092  -0.00024  -0.00337
 190        3PX        -0.00014   0.00017  -0.00007   0.00034  -0.00057
 191        3PY        -0.00040  -0.00041   0.00012  -0.00066  -0.00071
 192        3PZ         0.00015   0.00212   0.00008   0.00013   0.00258
[...]
  65         V                 0.176635          1.900807
  66         V                 0.182018          1.828903
  67         V                 0.204863          1.862442
  68         V                 0.215160          1.882708
  69         V                 0.229040          1.662656
  70         V                 0.248057          2.648435
  71         V                 0.273228          2.244785
  72         V                 0.348812          1.977053
  73         V                 0.365482          1.979647
  74         V                 0.386355          2.199789
  75         V                 0.400863          2.415825
  76         V                 0.420302          2.646847
  77         V                 0.432220          2.017096
  78         V                 0.444899          2.499083
  79         V                 0.450242          1.814534
  80         V                 0.518978          2.061820
  81         V                 0.568995          2.610121
  82         V                 0.588388          2.231863
  83         V                 0.598987          2.263063
  84         V                 0.620372          2.299289
  85         V                 0.664892          2.447853
  86         V                 0.728431          2.313756
  87         V                 0.763553          2.695177
  88         V                 0.767030          2.683824
  89         V                 0.774888          2.529829
  90         V                 0.789382          2.528123
  91         V                 0.795220          2.542503
  92         V                 0.805595          2.433074
  93         V                 0.813990          2.853812
  94         V                 0.834641          2.605869
  95         V                 0.863264          2.289256
  96         V                 0.873011          2.507520
  97         V                 0.885999          2.666157
  98         V                 0.890856          2.671636
  99         V                 0.908200          2.801994
 100         V                 0.915688          2.822610
 101         V                 0.918838          2.765360
 102         V                 0.937863          2.879306
 103         V                 0.945382          2.718757
 104         V                 0.966416          2.965458
 105         V                 0.973952          3.179943
 106         V                 1.000374          3.142890
 107         V                 1.009106          3.107445
 108         V                 1.013079          2.974546
 109         V                 1.026825          3.244287
 110         V                 1.039563          3.278772
 111         V                 1.048594          3.326555
 112         V                 1.063479          2.954480
 113         V                 1.071735          3.323695
 114         V                 1.095201          3.222026
 115         V                 1.127544          3.677244
 116         V                 1.142565          3.670009
 117         V                 1.160250          3.505662
 118         V                 1.169874          3.704541
 119         V                 1.193869          3.686683
 120         V                 1.205640          3.575604
 121         V                 1.219624          3.157578
 122         V                 1.224585          3.025481
 123         V                 1.257716          3.308257
 124         V                 1.307301          3.066657
 125         V                 1.320174          2.984413
 126         V                 1.369994          2.674584
 127         V                 1.400526          2.574081
 128         V                 1.423945          2.813554
 129         V                 1.454458          2.660476
 130         V                 1.477076          2.704798
 131         V                 1.503506          2.765130
 132         V                 1.567793          2.735803
 133         V                 1.573164          2.654760
 134         V                 1.588518          2.669123
 135         V                 1.590780          2.677159
 136         V                 1.603870          2.731612
 137         V                 1.618770          2.720577
 138         V                 1.665511          2.731085
 139         V                 1.680430          2.830227
 140         V                 1.696041          2.854693
 141         V                 1.724890          2.876849
 142         V                 1.735332          2.898723
 143         V                 1.753498          2.913012
 144         V                 1.788010          2.858124
 145         V                 1.840098          2.958303
 146         V                 1.843556          2.957178
 147         V                 1.858541          3.052509
 148         V                 1.867350          3.024236
 149         V                 1.876410          2.943475
 150         V                 1.891453          3.378610
 151         V                 1.904504          3.212307
 152         V                 1.916439          3.291222
 153         V                 1.957489          3.258935
 154         V                 1.988680          3.196999
 155         V                 1.994653          3.260151
 156         V                 2.034376          3.456134
 157         V                 2.060622          3.118105
 158         V                 2.062343          3.301863
 159         V                 2.083568          3.429869
 160         V                 2.114193          3.278830
 161         V                 2.127240          3.396005
 162         V                 2.164781          3.483648
 163         V                 2.177169          3.388213
 164         V                 2.215863          3.513220
 165         V                 2.252340          3.551008
 166         V                 2.330273          3.662858
 167         V                 2.337501          3.693347
 168         V                 2.361776          3.709880
 169         V                 2.367229          3.706061
 170         V                 2.412159          3.663134
 171         V                 2.423253          3.635934
 172         V                 2.443072          3.692632
 173         V                 2.452134          3.932898
 174         V                 2.496629          3.739827
 175         V                 2.513979          4.317137
 176         V                 2.524447          4.229544
 177         V                 2.633030          3.622205
 178         V                 2.641354          3.746900
 179         V                 2.645138          3.982476
 180         V                 2.646188          3.976542
 181         V                 2.651633          3.866829
 182         V                 2.658216          4.025635
 183         V                 2.676517          3.666759
 184         V                 2.710764          3.876267
 185         V                 2.727215          3.847291
 186         V                 2.734276          3.858829
 187         V                 2.757074          4.016771
 188         V                 2.768469          3.998990
 189         V                 2.803758          4.346581
 190         V                 2.833766          4.460065
 191         V                 2.851302          4.781971
 192         V                 2.886601          3.953994
 193         V                 2.948861          4.129661
 194         V                 3.022454          4.580183
 195         V                 3.232372          4.976729
 196         V                 3.367339          6.509267
 197         V                 3.379764          6.418520
 198         V                 3.384303          6.378867
 199         V                 3.399683          6.333792
 200         V                 3.444009          5.289158
 201         V                 3.453123          5.258048
 202         V                 3.483721          6.318832
 203         V                 3.539628          9.823522
 204         V                 3.588038         10.312729
 205         V                 3.863677          9.600947
 206         V                 3.908215          9.638592
 207         V                 3.933958         10.037947
 208         V                 4.029599         10.244127
 209         V                 4.089086         10.213485
 210         V                 4.268463         10.537509
 211         V                 4.299571         10.608084
 212         V                 4.394115         10.598187
 213         V                 4.602829         10.385052
 Total kinetic energy from orbitals= 1.283245644393D+03
                          Isotropic Fermi Contact Couplings
        Atom                 a.u.       MegaHertz       Gauss      10(-4) cm-1
     1  C(13)              0.10163     114.25662      40.76960      38.11191
     2  C(13)              0.02295      25.79530       9.20441       8.60439
     3  H(1)               0.00135       6.02276       2.14907       2.00898
     4  H(1)              -0.00042      -1.86957      -0.66711      -0.62362
     5  H(1)              -0.00033      -1.46087      -0.52127      -0.48729
     6  O(17)              0.15998     -96.97965     -34.60475     -32.34893
     7  H(1)               0.00378      16.88754       6.02590       5.63308
     8  P(31)              0.28319     512.88626     183.01057     171.08044
     9  P(31)              0.20478     370.87316     132.33677     123.70997
    10  O(17)              0.50053    -303.42196    -108.26850    -101.21067
    11  H(1)               0.00848      37.89376      13.52144      12.64000
    12  O(17)              0.41504    -251.59730     -89.77617     -83.92383
    13  H(1)               0.00908      40.57506      14.47819      13.53438
    14  O(17)              0.31029    -188.09683     -67.11763     -62.74235
    15  H(1)               0.00513      22.91443       8.17644       7.64343
    16  O(17)              0.31759    -192.52042     -68.69607     -64.21790
    17  H(1)               0.00663      29.64860      10.57936       9.88971
    18  O(17)              0.04582     -27.77808      -9.91191      -9.26577
    19  O(17)              0.06334     -38.39945     -13.70188     -12.80868
 --------------------------------------------------------
       Center         ----  Spin Dipole Couplings  ----
                      3XX-RR        3YY-RR        3ZZ-RR
 --------------------------------------------------------
     1   Atom       -0.058275      0.038808      0.019467
     2   Atom       -0.004782      0.012465     -0.007683
     3   Atom       -0.000133     -0.000636      0.000768
     4   Atom        0.003720     -0.000251     -0.003469
     5   Atom        0.003595     -0.000269     -0.003326
     6   Atom       -0.007994      0.033858     -0.025864
     7   Atom       -0.002732      0.001426      0.001305
     8   Atom       -0.042830     -0.023258      0.066087
     9   Atom       -0.037713     -0.012364      0.050077
    10   Atom        0.070866     -0.049422     -0.021444
    11   Atom        0.010830     -0.001510     -0.009320
    12   Atom       -0.035771     -0.024749      0.060520
    13   Atom        0.000492     -0.002323      0.001831
    14   Atom        0.048475     -0.029999     -0.018476
    15   Atom        0.004724      0.002305     -0.007029
    16   Atom       -0.033540     -0.030526      0.064066
    17   Atom        0.004230     -0.002029     -0.002201
    18   Atom        0.001253     -0.025974      0.024721
    19   Atom        0.001614     -0.034667      0.033053
 --------------------------------------------------------
                        XY            XZ            YZ
 --------------------------------------------------------
     1   Atom       -0.009400      0.008367     -0.071825
     2   Atom        0.000009      0.000460      0.008670
     3   Atom       -0.000321     -0.000152      0.001259
     4   Atom       -0.000530     -0.002156      0.000984
     5   Atom        0.000011      0.002444      0.001270
     6   Atom       -0.002191      0.001320     -0.010021
     7   Atom       -0.001372      0.000024      0.005215
     8   Atom        0.005116     -0.012198     -0.031803
     9   Atom       -0.003395      0.011234     -0.031357
    10   Atom        0.075864      0.066749      0.012775
    11   Atom       -0.016257     -0.005858      0.007136
    12   Atom        0.005447     -0.058104     -0.058769
    13   Atom        0.007496      0.010074      0.008507
    14   Atom       -0.050505     -0.022921      0.006464
    15   Atom        0.010423      0.001699      0.003966
    16   Atom        0.000064      0.054427     -0.032153
    17   Atom       -0.007044     -0.007239      0.004921
    18   Atom       -0.004122      0.029333     -0.009392
    19   Atom        0.004188     -0.046056     -0.013828
 --------------------------------------------------------


 ---------------------------------------------------------------------------------
              Anisotropic Spin Dipole Couplings in Principal Axis System
 ---------------------------------------------------------------------------------

       Atom             a.u.   MegaHertz   Gauss  10(-4) cm-1        Axes

              Baa    -0.0593    -7.952    -2.838    -2.653  0.9969  0.0541 -0.0566
     1 C(13)  Bbb    -0.0433    -5.815    -2.075    -1.940  0.0069  0.6587  0.7524
              Bcc     0.1026    13.767     4.912     4.592 -0.0780  0.7505 -0.6563
 
              Baa    -0.0109    -1.467    -0.523    -0.489 -0.0695 -0.3466  0.9354
     2 C(13)  Bbb    -0.0048    -0.638    -0.228    -0.213  0.9975 -0.0319  0.0623
              Bcc     0.0157     2.105     0.751     0.702  0.0082  0.9375  0.3480
 
              Baa    -0.0014    -0.751    -0.268    -0.251  0.1587  0.8592 -0.4863
     3 H(1)   Bbb    -0.0002    -0.081    -0.029    -0.027  0.9722 -0.0500  0.2289
              Bcc     0.0016     0.832     0.297     0.278 -0.1724  0.5091  0.8433
 
              Baa    -0.0042    -2.259    -0.806    -0.753  0.2437 -0.2020  0.9486
     4 H(1)   Bbb    -0.0002    -0.114    -0.041    -0.038  0.2128  0.9654  0.1509
              Bcc     0.0044     2.373     0.847     0.791  0.9462 -0.1651 -0.2783
 
              Baa    -0.0045    -2.375    -0.848    -0.792 -0.2788 -0.2783  0.9192
     5 H(1)   Bbb     0.0000     0.025     0.009     0.008 -0.1675  0.9565  0.2388
              Bcc     0.0044     2.351     0.839     0.784  0.9456  0.0874  0.3133
 
              Baa    -0.0275     1.993     0.711     0.665 -0.0487  0.1592  0.9860
     6 O(17)  Bbb    -0.0081     0.584     0.209     0.195  0.9973  0.0615  0.0393
              Bcc     0.0356    -2.578    -0.920    -0.860 -0.0544  0.9853 -0.1617
 
              Baa    -0.0044    -2.370    -0.846    -0.791  0.5161  0.6333 -0.5768
     7 H(1)   Bbb    -0.0022    -1.194    -0.426    -0.398  0.8504 -0.2983  0.4333
              Bcc     0.0067     3.564     1.272     1.189 -0.1023  0.7141  0.6925
 
              Baa    -0.0444    -9.597    -3.424    -3.201  0.9886 -0.1324  0.0710
     8 P(31)  Bbb    -0.0333    -7.199    -2.569    -2.401  0.1038  0.9435  0.3147
              Bcc     0.0777    16.796     5.993     5.602 -0.1087 -0.3037  0.9465
 
              Baa    -0.0391    -8.463    -3.020    -2.823  0.9900 -0.0347 -0.1368
     9 P(31)  Bbb    -0.0253    -5.468    -1.951    -1.824  0.0838  0.9244  0.3721
              Bcc     0.0644    13.931     4.971     4.647  0.1136 -0.3798  0.9181
 
              Baa    -0.0923     6.681     2.384     2.229 -0.5061  0.7955  0.3332
    10 O(17)  Bbb    -0.0430     3.108     1.109     1.037 -0.1853 -0.4776  0.8588
              Bcc     0.1353    -9.789    -3.493    -3.265  0.8423  0.3729  0.3891
 
              Baa    -0.0147    -7.853    -2.802    -2.620  0.3216  0.7249 -0.6092
    11 H(1)   Bbb    -0.0097    -5.163    -1.842    -1.722  0.5286  0.3963  0.7507
              Bcc     0.0244    13.017     4.645     4.342  0.7856 -0.5634 -0.2557
 
              Baa    -0.0757     5.474     1.953     1.826  0.6795  0.5223  0.5153
    12 O(17)  Bbb    -0.0353     2.553     0.911     0.852 -0.6436  0.7615  0.0768
              Bcc     0.1109    -8.027    -2.864    -2.678 -0.3523 -0.3838  0.8535
 
              Baa    -0.0092    -4.882    -1.742    -1.629 -0.3958 -0.5139  0.7611
    13 H(1)   Bbb    -0.0085    -4.551    -1.624    -1.518  0.7039 -0.7020 -0.1080
              Bcc     0.0177     9.434     3.366     3.147  0.5898  0.4930  0.6395
 
              Baa    -0.0553     4.000     1.427     1.334  0.4571  0.8799  0.1301
    14 O(17)  Bbb    -0.0236     1.705     0.608     0.569  0.1515 -0.2212  0.9634
              Bcc     0.0788    -5.705    -2.036    -1.903  0.8764 -0.4206 -0.2344
 
              Baa    -0.0092    -4.908    -1.751    -1.637  0.3236 -0.5570  0.7649
    15 H(1)   Bbb    -0.0055    -2.943    -1.050    -0.982 -0.6083  0.4967  0.6191
              Bcc     0.0147     7.851     2.801     2.619  0.7247  0.6656  0.1780
 
              Baa    -0.0641     4.635     1.654     1.546  0.7896 -0.4255 -0.4422
    16 O(17)  Bbb    -0.0312     2.258     0.806     0.753  0.4828  0.8755  0.0196
              Bcc     0.0953    -6.894    -2.460    -2.299  0.3788 -0.2290  0.8967
 
              Baa    -0.0071    -3.782    -1.349    -1.261  0.2130 -0.5127  0.8318
    17 H(1)   Bbb    -0.0066    -3.498    -1.248    -1.167  0.6477  0.7115  0.2727
              Bcc     0.0136     7.279     2.597     2.428  0.7316 -0.4806 -0.4836
 
              Baa    -0.0278     2.008     0.717     0.670 -0.0868  0.9711  0.2223
    18 O(17)  Bbb    -0.0182     1.320     0.471     0.440  0.8294  0.1941 -0.5239
              Bcc     0.0460    -3.328    -1.188    -1.110  0.5519 -0.1389  0.8223
 
              Baa    -0.0392     2.836     1.012     0.946  0.3462  0.8557  0.3845
    19 O(17)  Bbb    -0.0286     2.073     0.740     0.691  0.7439 -0.5002  0.4432
              Bcc     0.0678    -4.908    -1.751    -1.637 -0.5716 -0.1326  0.8097
 

 ---------------------------------------------------------------------------------


 Test job not archived.
 1\1\GINC-BATAGIN2\SP\UB3LYP\6-31G(d,p)\C2H8O7P2(1-,2)\ORISON\22-Jan-20
 21\0\\#t B3LYP/6-31G(d,p) scrf=(solvent=water) # Gfinput IOP(6/7=3) Po
 p=hirshfeld Density Test # Units(Ang,Deg)\\w-etidronate-opt-g09.log\\-
 1,2\C,0,-0.00171,0.68714,-0.19864\C,0,-0.00329,1.99159,0.60876\H,0,-0.
 00153,1.79093,1.68222\H,0,0.87947,2.57956,0.35006\H,0,-0.89289,2.57309
 ,0.35651\O,0,0.00033,1.04131,-1.57479\H,0,0.05751,0.22467,-2.09625\P,0
 ,1.5484,-0.27069,0.19782\P,0,-1.55891,-0.25671,0.19906\O,0,1.58979,-1.
 24737,-1.08514\H,0,2.46196,-1.63979,-1.25035\O,0,2.76224,0.75085,-0.13
 124\H,0,3.19615,1.06439,0.6777\O,0,-1.46472,-1.4036,-0.93067\H,0,-2.29
 615,-1.88381,-1.07259\O,0,-2.7498,0.68445,-0.36881\H,0,-3.28402,1.0514
 ,0.35282\O,0,-1.74432,-0.67801,1.61405\O,0,1.61488,-0.88788,1.54984\\V
 ersion=EM64L-G16RevA.03\State=2-A\HF=-1290.4519696\S2=0.751064\S2-1=0.
 \S2A=0.750001\RMSD=3.000e-09\Dipole=-0.6266183,1.0944493,-1.0021556\Qu
 adrupole=1.0496642,3.7281412,-4.7778054,1.0779835,0.8122564,9.1559924\
 PG=C01 [X(C2H8O7P2)]\\@


 TERENCE, THIS IS STUPID STUFF:
 YOU EAT YOUR VICTUALS FAST ENOUGH;
 THERE CAN'T BE MUCH AMISS, 'TIS CLEAR
 TO SEE THE RATE YOU DRINK YOUR BEER.
 BUT OH, GOOD LORD, THE VERSE YOU MAKE,
 IT GIVES A CHAP THE BELLY-ACHE.
 THE COW, THE OLD COW, SHE IS DEAD;
 IT SLEEPS WELL, THE HORNED HEAD:
 WE POOR LADS, 'TIS OUR TURN NOW
 TO HEAR SUCH TUNES AS KILLED THE COW.
 PRETTY FRIENDSHIP 'TIS TO RHYME
 YOUR FRIENDS TO DEATH BEFORE THEIR TIME.
 MOPING, MELANCHOLY MAD:
 COME PIPE A TUNE TO DANCE TO, LAD.

     -- A. E. HOUSMAN
 Job cpu time:       0 days  0 hours 14 minutes 57.5 seconds.
 Elapsed time:       0 days  0 hours  1 minutes 52.4 seconds.
 File lengths (MBytes):  RWF=     95 Int=      0 D2E=      0 Chk=      5 Scr=      1
 Normal termination of Gaussian 16 at Fri Jan 22 02:45:39 2021.
