 Entering Gaussian System, Link 0=g16
 Input=w-etidronate_neutral_scf_g09.com
 Output=w-etidronate_neutral_scf_g09.log
 Initial command:
 /usr/local//g16/l1.exe "/home/orison/scrgauss/Gau-23249.inp" -scrdir="/home/orison/scrgauss/"
 Entering Link 1 = /usr/local//g16/l1.exe PID=     23251.
  
 Copyright (c) 1988,1990,1992,1993,1995,1998,2003,2009,2016,
            Gaussian, Inc.  All Rights Reserved.
  
 This is part of the Gaussian(R) 16 program.  It is based on
 the Gaussian(R) 09 system (copyright 2009, Gaussian, Inc.),
 the Gaussian(R) 03 system (copyright 2003, Gaussian, Inc.),
 the Gaussian(R) 98 system (copyright 1998, Gaussian, Inc.),
 the Gaussian(R) 94 system (copyright 1995, Gaussian, Inc.),
 the Gaussian 92(TM) system (copyright 1992, Gaussian, Inc.),
 the Gaussian 90(TM) system (copyright 1990, Gaussian, Inc.),
 the Gaussian 88(TM) system (copyright 1988, Gaussian, Inc.),
 the Gaussian 86(TM) system (copyright 1986, Carnegie Mellon
 University), and the Gaussian 82(TM) system (copyright 1983,
 Carnegie Mellon University). Gaussian is a federally registered
 trademark of Gaussian, Inc.
  
 This software contains proprietary and confidential information,
 including trade secrets, belonging to Gaussian, Inc.
  
 This software is provided under written license and may be
 used, copied, transmitted, or stored only in accord with that
 written license.
  
 The following legend is applicable only to US Government
 contracts under FAR:
  
                    RESTRICTED RIGHTS LEGEND
  
 Use, reproduction and disclosure by the US Government is
 subject to restrictions as set forth in subparagraphs (a)
 and (c) of the Commercial Computer Software - Restricted
 Rights clause in FAR 52.227-19.
  
 Gaussian, Inc.
 340 Quinnipiac St., Bldg. 40, Wallingford CT 06492
  
  
 ---------------------------------------------------------------
 Warning -- This program may not be used in any manner that
 competes with the business of Gaussian, Inc. or will provide
 assistance to any competitor of Gaussian, Inc.  The licensee
 of this program is prohibited from giving any competitor of
 Gaussian, Inc. access to this program.  By using this program,
 the user acknowledges that Gaussian, Inc. is engaged in the
 business of creating and licensing software in the field of
 computational chemistry and represents and warrants to the
 licensee that it is not a competitor of Gaussian, Inc. and that
 it will not use this program in any manner prohibited above.
 ---------------------------------------------------------------
  

 Cite this work as:
 Gaussian 16, Revision A.03,
 M. J. Frisch, G. W. Trucks, H. B. Schlegel, G. E. Scuseria, 
 M. A. Robb, J. R. Cheeseman, G. Scalmani, V. Barone, 
 G. A. Petersson, H. Nakatsuji, X. Li, M. Caricato, A. V. Marenich, 
 J. Bloino, B. G. Janesko, R. Gomperts, B. Mennucci, H. P. Hratchian, 
 J. V. Ortiz, A. F. Izmaylov, J. L. Sonnenberg, D. Williams-Young, 
 F. Ding, F. Lipparini, F. Egidi, J. Goings, B. Peng, A. Petrone, 
 T. Henderson, D. Ranasinghe, V. G. Zakrzewski, J. Gao, N. Rega, 
 G. Zheng, W. Liang, M. Hada, M. Ehara, K. Toyota, R. Fukuda, 
 J. Hasegawa, M. Ishida, T. Nakajima, Y. Honda, O. Kitao, H. Nakai, 
 T. Vreven, K. Throssell, J. A. Montgomery, Jr., J. E. Peralta, 
 F. Ogliaro, M. J. Bearpark, J. J. Heyd, E. N. Brothers, K. N. Kudin, 
 V. N. Staroverov, T. A. Keith, R. Kobayashi, J. Normand, 
 K. Raghavachari, A. P. Rendell, J. C. Burant, S. S. Iyengar, 
 J. Tomasi, M. Cossi, J. M. Millam, M. Klene, C. Adamo, R. Cammi, 
 J. W. Ochterski, R. L. Martin, K. Morokuma, O. Farkas, 
 J. B. Foresman, and D. J. Fox, Gaussian, Inc., Wallingford CT, 2016.
 
 ******************************************
 Gaussian 16:  EM64L-G16RevA.03 25-Dec-2016
                22-Jan-2021 
 ******************************************
 %nproc=8
 Will use up to    8 processors via shared memory.
 %Mem=4GB
 ----------------------------------------------------------------------
 #t B3LYP/6-31G(d,p) scrf=(solvent=water) # Gfinput IOP(6/7=3) Pop=hirs
 hfeld Density Test # Units(Ang,Deg)
 ----------------------------------------------------------------------
 ------------------------
 w-etidronate-opt-g09.log
 ------------------------
 Symbolic Z-matrix:
 Charge =  0 Multiplicity = 1
 C                    -0.00171   0.68714  -0.19864 
 C                    -0.00329   1.99159   0.60876 
 H                    -0.00153   1.79093   1.68222 
 H                     0.87947   2.57956   0.35006 
 H                    -0.89289   2.57309   0.35651 
 O                     0.00033   1.04131  -1.57479 
 H                     0.05751   0.22467  -2.09625 
 P                     1.5484   -0.27069   0.19782 
 P                    -1.55891  -0.25671   0.19906 
 O                     1.58979  -1.24737  -1.08514 
 H                     2.46196  -1.63979  -1.25035 
 O                     2.76224   0.75085  -0.13124 
 H                     3.19615   1.06439   0.6777 
 O                    -1.46472  -1.4036   -0.93067 
 H                    -2.29615  -1.88381  -1.07259 
 O                    -2.7498    0.68445  -0.36881 
 H                    -3.28402   1.0514    0.35282 
 O                    -1.74432  -0.67801   1.61405 
 O                     1.61488  -0.88788   1.54984 
 
                    Distance matrix (angstroms):
                    1          2          3          4          5
     1  C    0.000000
     2  C    1.534108   0.000000
     3  H    2.180822   1.092055   0.000000
     4  H    2.158426   1.091742   1.781221   0.000000
     5  H    2.158518   1.092319   1.778708   1.772384   0.000000
     6  O    1.420996   2.381373   3.342162   2.616132   2.621853
     7  H    1.954049   3.231529   4.090659   3.493645   3.526240
     8  P    1.864795   2.773901   2.975904   2.931650   3.751288
     9  P    1.863837   2.764536   2.969516   3.743384   2.911381
    10  O    2.657270   3.987238   4.407023   4.148463   4.778909
    11  H    3.548291   4.766620   5.141847   4.782102   5.620087
    12  O    2.765506   3.120127   3.465376   2.668455   4.113202
    13  H    3.337154   3.331797   3.429589   2.787489   4.370307
    14  O    2.654705   4.004115   4.378715   4.795942   4.218754
    15  H    3.555000   4.806544   5.134002   5.659520   4.886248
    16  O    2.753355   3.194930   3.603333   4.156900   2.746118
    17  H    3.348186   3.422375   3.617865   4.435079   2.834265
    18  O    2.861148   3.341939   3.022851   4.369635   3.588313
    19  O    2.855037   3.434451   3.131506   3.742117   4.437484
                    6          7          8          9         10
     6  O    0.000000
     7  H    0.970614   0.000000
     8  P    2.694441   2.780448   0.000000
     9  P    2.694927   2.848331   3.107342   0.000000
    10  O    2.829169   2.353110   1.612949   3.541876   0.000000
    11  H    3.654200   3.158028   2.192310   4.492337   0.970551
    12  O    3.129912   3.384331   1.620257   4.449338   2.505483
    13  H    3.909924   4.272118   2.174351   4.958326   3.321480
    14  O    2.922131   2.515358   3.411139   1.612612   3.062401
    15  H    3.752646   3.321639   4.358516   2.192731   3.937733
    16  O    3.024062   3.328128   4.439356   1.620641   4.803863
    17  H    3.808246   4.224600   5.012408   2.170437   5.577284
    18  O    4.021015   4.222292   3.607440   1.487974   4.327365
    19  O    4.011466   4.117905   1.487717   3.506555   2.659508
                   11         12         13         14         15
    11  H    0.000000
    12  O    2.656640   0.000000
    13  H    3.401323   0.970036   0.000000
    14  O    3.946745   4.811230   5.513759   0.000000
    15  H    4.767678   5.780561   6.474624   0.970577   0.000000
    16  O    5.774223   5.517557   6.049286   2.515367   2.701308
    17  H    6.544383   6.073047   6.488322   3.314246   3.409272
    18  O    5.179054   5.039520   5.321743   2.660875   2.996082
    19  O    3.020592   2.613025   2.659399   3.987836   4.813021
                   16         17         18         19
    16  O    0.000000
    17  H    0.969945   0.000000
    18  O    2.607493   2.636709   0.000000
    19  O    5.020346   5.403044   3.366362   0.000000
 Framework group  C1[X(C2H8O7P2)]
 Deg. of freedom    51
                         Standard orientation:                         
 ---------------------------------------------------------------------
 Center     Atomic      Atomic             Coordinates (Angstroms)
 Number     Number       Type             X           Y           Z
 ---------------------------------------------------------------------
      1          6           0       -0.001711    0.687142   -0.198640
      2          6           0       -0.003292    1.991592    0.608760
      3          1           0       -0.001532    1.790932    1.682220
      4          1           0        0.879467    2.579562    0.350060
      5          1           0       -0.892893    2.573091    0.356510
      6          8           0        0.000329    1.041312   -1.574790
      7          1           0        0.057509    0.224672   -2.096250
      8         15           0        1.548400   -0.270687    0.197820
      9         15           0       -1.558910   -0.256710    0.199060
     10          8           0        1.589791   -1.247367   -1.085140
     11          1           0        2.461961   -1.639786   -1.250350
     12          8           0        2.762239    0.750854   -0.131240
     13          1           0        3.196149    1.064394    0.677700
     14          8           0       -1.464719   -1.403600   -0.930670
     15          1           0       -2.296149   -1.883810   -1.072590
     16          8           0       -2.749801    0.684449   -0.368810
     17          1           0       -3.284021    1.051399    0.352820
     18          8           0       -1.744320   -0.678010    1.614050
     19          8           0        1.614880   -0.887877    1.549840
 ---------------------------------------------------------------------
 Rotational constants (GHZ):           1.3811679           0.6640302           0.6409754
 AO basis set in the form of general basis input (Overlap normalization):
      1 0
 S   6 1.00       0.000000000000
      0.3047524880D+04  0.1834737132D-02
      0.4573695180D+03  0.1403732281D-01
      0.1039486850D+03  0.6884262226D-01
      0.2921015530D+02  0.2321844432D+00
      0.9286662960D+01  0.4679413484D+00
      0.3163926960D+01  0.3623119853D+00
 SP   3 1.00       0.000000000000
      0.7868272350D+01 -0.1193324198D+00  0.6899906659D-01
      0.1881288540D+01 -0.1608541517D+00  0.3164239610D+00
      0.5442492580D+00  0.1143456438D+01  0.7443082909D+00
 SP   1 1.00       0.000000000000
      0.1687144782D+00  0.1000000000D+01  0.1000000000D+01
 D   1 1.00       0.000000000000
      0.8000000000D+00  0.1000000000D+01
 ****
      2 0
 S   6 1.00       0.000000000000
      0.3047524880D+04  0.1834737132D-02
      0.4573695180D+03  0.1403732281D-01
      0.1039486850D+03  0.6884262226D-01
      0.2921015530D+02  0.2321844432D+00
      0.9286662960D+01  0.4679413484D+00
      0.3163926960D+01  0.3623119853D+00
 SP   3 1.00       0.000000000000
      0.7868272350D+01 -0.1193324198D+00  0.6899906659D-01
      0.1881288540D+01 -0.1608541517D+00  0.3164239610D+00
      0.5442492580D+00  0.1143456438D+01  0.7443082909D+00
 SP   1 1.00       0.000000000000
      0.1687144782D+00  0.1000000000D+01  0.1000000000D+01
 D   1 1.00       0.000000000000
      0.8000000000D+00  0.1000000000D+01
 ****
      3 0
 S   3 1.00       0.000000000000
      0.1873113696D+02  0.3349460434D-01
      0.2825394365D+01  0.2347269535D+00
      0.6401216923D+00  0.8137573261D+00
 S   1 1.00       0.000000000000
      0.1612777588D+00  0.1000000000D+01
 P   1 1.00       0.000000000000
      0.1100000000D+01  0.1000000000D+01
 ****
      4 0
 S   3 1.00       0.000000000000
      0.1873113696D+02  0.3349460434D-01
      0.2825394365D+01  0.2347269535D+00
      0.6401216923D+00  0.8137573261D+00
 S   1 1.00       0.000000000000
      0.1612777588D+00  0.1000000000D+01
 P   1 1.00       0.000000000000
      0.1100000000D+01  0.1000000000D+01
 ****
      5 0
 S   3 1.00       0.000000000000
      0.1873113696D+02  0.3349460434D-01
      0.2825394365D+01  0.2347269535D+00
      0.6401216923D+00  0.8137573261D+00
 S   1 1.00       0.000000000000
      0.1612777588D+00  0.1000000000D+01
 P   1 1.00       0.000000000000
      0.1100000000D+01  0.1000000000D+01
 ****
      6 0
 S   6 1.00       0.000000000000
      0.5484671660D+04  0.1831074430D-02
      0.8252349460D+03  0.1395017220D-01
      0.1880469580D+03  0.6844507810D-01
      0.5296450000D+02  0.2327143360D+00
      0.1689757040D+02  0.4701928980D+00
      0.5799635340D+01  0.3585208530D+00
 SP   3 1.00       0.000000000000
      0.1553961625D+02 -0.1107775495D+00  0.7087426823D-01
      0.3599933586D+01 -0.1480262627D+00  0.3397528391D+00
      0.1013761750D+01  0.1130767015D+01  0.7271585773D+00
 SP   1 1.00       0.000000000000
      0.2700058226D+00  0.1000000000D+01  0.1000000000D+01
 D   1 1.00       0.000000000000
      0.8000000000D+00  0.1000000000D+01
 ****
      7 0
 S   3 1.00       0.000000000000
      0.1873113696D+02  0.3349460434D-01
      0.2825394365D+01  0.2347269535D+00
      0.6401216923D+00  0.8137573261D+00
 S   1 1.00       0.000000000000
      0.1612777588D+00  0.1000000000D+01
 P   1 1.00       0.000000000000
      0.1100000000D+01  0.1000000000D+01
 ****
      8 0
 S   6 1.00       0.000000000000
      0.1941330000D+05  0.1851598923D-02
      0.2909420000D+04  0.1420619174D-01
      0.6613640000D+03  0.6999945928D-01
      0.1857590000D+03  0.2400788603D+00
      0.5919430000D+02  0.4847617180D+00
      0.2003100000D+02  0.3351998050D+00
 SP   6 1.00       0.000000000000
      0.3394780000D+03 -0.2782170105D-02  0.4564616191D-02
      0.8101010000D+02 -0.3604990135D-01  0.3369357188D-01
      0.2587800000D+02 -0.1166310044D+00  0.1397548834D+00
      0.9452210000D+01  0.9683280364D-01  0.3393617168D+00
      0.3665660000D+01  0.6144180231D+00  0.4509206237D+00
      0.1467460000D+01  0.4037980152D+00  0.2385858009D+00
 SP   3 1.00       0.000000000000
      0.2156230000D+01 -0.2529241139D+00 -0.1776531273D-01
      0.7489970000D+00  0.3285184468D-01  0.2740581964D+00
      0.2831450000D+00  0.1081254762D+01  0.7854215630D+00
 SP   1 1.00       0.000000000000
      0.9983170000D-01  0.1000000000D+01  0.1000000000D+01
 D   1 1.00       0.000000000000
      0.5500000000D+00  0.1000000000D+01
 ****
      9 0
 S   6 1.00       0.000000000000
      0.1941330000D+05  0.1851598923D-02
      0.2909420000D+04  0.1420619174D-01
      0.6613640000D+03  0.6999945928D-01
      0.1857590000D+03  0.2400788603D+00
      0.5919430000D+02  0.4847617180D+00
      0.2003100000D+02  0.3351998050D+00
 SP   6 1.00       0.000000000000
      0.3394780000D+03 -0.2782170105D-02  0.4564616191D-02
      0.8101010000D+02 -0.3604990135D-01  0.3369357188D-01
      0.2587800000D+02 -0.1166310044D+00  0.1397548834D+00
      0.9452210000D+01  0.9683280364D-01  0.3393617168D+00
      0.3665660000D+01  0.6144180231D+00  0.4509206237D+00
      0.1467460000D+01  0.4037980152D+00  0.2385858009D+00
 SP   3 1.00       0.000000000000
      0.2156230000D+01 -0.2529241139D+00 -0.1776531273D-01
      0.7489970000D+00  0.3285184468D-01  0.2740581964D+00
      0.2831450000D+00  0.1081254762D+01  0.7854215630D+00
 SP   1 1.00       0.000000000000
      0.9983170000D-01  0.1000000000D+01  0.1000000000D+01
 D   1 1.00       0.000000000000
      0.5500000000D+00  0.1000000000D+01
 ****
     10 0
 S   6 1.00       0.000000000000
      0.5484671660D+04  0.1831074430D-02
      0.8252349460D+03  0.1395017220D-01
      0.1880469580D+03  0.6844507810D-01
      0.5296450000D+02  0.2327143360D+00
      0.1689757040D+02  0.4701928980D+00
      0.5799635340D+01  0.3585208530D+00
 SP   3 1.00       0.000000000000
      0.1553961625D+02 -0.1107775495D+00  0.7087426823D-01
      0.3599933586D+01 -0.1480262627D+00  0.3397528391D+00
      0.1013761750D+01  0.1130767015D+01  0.7271585773D+00
 SP   1 1.00       0.000000000000
      0.2700058226D+00  0.1000000000D+01  0.1000000000D+01
 D   1 1.00       0.000000000000
      0.8000000000D+00  0.1000000000D+01
 ****
     11 0
 S   3 1.00       0.000000000000
      0.1873113696D+02  0.3349460434D-01
      0.2825394365D+01  0.2347269535D+00
      0.6401216923D+00  0.8137573261D+00
 S   1 1.00       0.000000000000
      0.1612777588D+00  0.1000000000D+01
 P   1 1.00       0.000000000000
      0.1100000000D+01  0.1000000000D+01
 ****
     12 0
 S   6 1.00       0.000000000000
      0.5484671660D+04  0.1831074430D-02
      0.8252349460D+03  0.1395017220D-01
      0.1880469580D+03  0.6844507810D-01
      0.5296450000D+02  0.2327143360D+00
      0.1689757040D+02  0.4701928980D+00
      0.5799635340D+01  0.3585208530D+00
 SP   3 1.00       0.000000000000
      0.1553961625D+02 -0.1107775495D+00  0.7087426823D-01
      0.3599933586D+01 -0.1480262627D+00  0.3397528391D+00
      0.1013761750D+01  0.1130767015D+01  0.7271585773D+00
 SP   1 1.00       0.000000000000
      0.2700058226D+00  0.1000000000D+01  0.1000000000D+01
 D   1 1.00       0.000000000000
      0.8000000000D+00  0.1000000000D+01
 ****
     13 0
 S   3 1.00       0.000000000000
      0.1873113696D+02  0.3349460434D-01
      0.2825394365D+01  0.2347269535D+00
      0.6401216923D+00  0.8137573261D+00
 S   1 1.00       0.000000000000
      0.1612777588D+00  0.1000000000D+01
 P   1 1.00       0.000000000000
      0.1100000000D+01  0.1000000000D+01
 ****
     14 0
 S   6 1.00       0.000000000000
      0.5484671660D+04  0.1831074430D-02
      0.8252349460D+03  0.1395017220D-01
      0.1880469580D+03  0.6844507810D-01
      0.5296450000D+02  0.2327143360D+00
      0.1689757040D+02  0.4701928980D+00
      0.5799635340D+01  0.3585208530D+00
 SP   3 1.00       0.000000000000
      0.1553961625D+02 -0.1107775495D+00  0.7087426823D-01
      0.3599933586D+01 -0.1480262627D+00  0.3397528391D+00
      0.1013761750D+01  0.1130767015D+01  0.7271585773D+00
 SP   1 1.00       0.000000000000
      0.2700058226D+00  0.1000000000D+01  0.1000000000D+01
 D   1 1.00       0.000000000000
      0.8000000000D+00  0.1000000000D+01
 ****
     15 0
 S   3 1.00       0.000000000000
      0.1873113696D+02  0.3349460434D-01
      0.2825394365D+01  0.2347269535D+00
      0.6401216923D+00  0.8137573261D+00
 S   1 1.00       0.000000000000
      0.1612777588D+00  0.1000000000D+01
 P   1 1.00       0.000000000000
      0.1100000000D+01  0.1000000000D+01
 ****
     16 0
 S   6 1.00       0.000000000000
      0.5484671660D+04  0.1831074430D-02
      0.8252349460D+03  0.1395017220D-01
      0.1880469580D+03  0.6844507810D-01
      0.5296450000D+02  0.2327143360D+00
      0.1689757040D+02  0.4701928980D+00
      0.5799635340D+01  0.3585208530D+00
 SP   3 1.00       0.000000000000
      0.1553961625D+02 -0.1107775495D+00  0.7087426823D-01
      0.3599933586D+01 -0.1480262627D+00  0.3397528391D+00
      0.1013761750D+01  0.1130767015D+01  0.7271585773D+00
 SP   1 1.00       0.000000000000
      0.2700058226D+00  0.1000000000D+01  0.1000000000D+01
 D   1 1.00       0.000000000000
      0.8000000000D+00  0.1000000000D+01
 ****
     17 0
 S   3 1.00       0.000000000000
      0.1873113696D+02  0.3349460434D-01
      0.2825394365D+01  0.2347269535D+00
      0.6401216923D+00  0.8137573261D+00
 S   1 1.00       0.000000000000
      0.1612777588D+00  0.1000000000D+01
 P   1 1.00       0.000000000000
      0.1100000000D+01  0.1000000000D+01
 ****
     18 0
 S   6 1.00       0.000000000000
      0.5484671660D+04  0.1831074430D-02
      0.8252349460D+03  0.1395017220D-01
      0.1880469580D+03  0.6844507810D-01
      0.5296450000D+02  0.2327143360D+00
      0.1689757040D+02  0.4701928980D+00
      0.5799635340D+01  0.3585208530D+00
 SP   3 1.00       0.000000000000
      0.1553961625D+02 -0.1107775495D+00  0.7087426823D-01
      0.3599933586D+01 -0.1480262627D+00  0.3397528391D+00
      0.1013761750D+01  0.1130767015D+01  0.7271585773D+00
 SP   1 1.00       0.000000000000
      0.2700058226D+00  0.1000000000D+01  0.1000000000D+01
 D   1 1.00       0.000000000000
      0.8000000000D+00  0.1000000000D+01
 ****
     19 0
 S   6 1.00       0.000000000000
      0.5484671660D+04  0.1831074430D-02
      0.8252349460D+03  0.1395017220D-01
      0.1880469580D+03  0.6844507810D-01
      0.5296450000D+02  0.2327143360D+00
      0.1689757040D+02  0.4701928980D+00
      0.5799635340D+01  0.3585208530D+00
 SP   3 1.00       0.000000000000
      0.1553961625D+02 -0.1107775495D+00  0.7087426823D-01
      0.3599933586D+01 -0.1480262627D+00  0.3397528391D+00
      0.1013761750D+01  0.1130767015D+01  0.7271585773D+00
 SP   1 1.00       0.000000000000
      0.2700058226D+00  0.1000000000D+01  0.1000000000D+01
 D   1 1.00       0.000000000000
      0.8000000000D+00  0.1000000000D+01
 ****

   213 basis functions,   412 primitive gaussians,   213 cartesian basis functions
    53 alpha electrons       53 beta electrons
       nuclear repulsion energy      1015.6344246122 Hartrees.
 NAtoms=   19 NActive=   19 NUniq=   19 SFac= 1.00D+00 NAtFMM=   60 NAOKFM=F Big=F
 ------------------------------------------------------------------------------
 Polarizable Continuum Model (PCM)
 =================================
 Model                : PCM.
 Atomic radii         : UFF (Universal Force Field).
 Polarization charges : Total charges.
 Charge compensation  : None.
 Solution method      : On-the-fly selection.
 Cavity type          : Scaled VdW (van der Waals Surface) (Alpha=1.100).
 Cavity algorithm     : GePol (No added spheres)
                        Default sphere list used, NSphG=   19.
                        Lebedev-Laikov grids with approx.  5.0 points / Ang**2.
                        Smoothing algorithm: York/Karplus (Gamma=1.0000).
                        Polarization charges: spherical gaussians, with
                                              point-specific exponents (IZeta= 3).
                        Self-potential: point-specific (ISelfS= 7).
                        Self-field    : sphere-specific E.n sum rule (ISelfD= 2).
 Solvent              : Water, Eps=  78.355300 Eps(inf)=   1.777849
 ------------------------------------------------------------------------------
 Spheres list:
 ISph  on   Nord     Re0    Alpha      Xe            Ye            Ze
    1   C      1    1.9255  1.100     -0.001711      0.687142     -0.198640
    2   C      2    1.9255  1.100     -0.003292      1.991592      0.608760
    3   H      3    1.4430  1.100     -0.001532      1.790932      1.682220
    4   H      4    1.4430  1.100      0.879467      2.579562      0.350060
    5   H      5    1.4430  1.100     -0.892893      2.573091      0.356510
    6   O      6    1.7500  1.100      0.000329      1.041312     -1.574790
    7   H      7    1.4430  1.100      0.057509      0.224672     -2.096250
    8   P      8    2.0735  1.100      1.548400     -0.270687      0.197820
    9   P      9    2.0735  1.100     -1.558910     -0.256710      0.199060
   10   O     10    1.7500  1.100      1.589791     -1.247367     -1.085140
   11   H     11    1.4430  1.100      2.461961     -1.639786     -1.250350
   12   O     12    1.7500  1.100      2.762239      0.750854     -0.131240
   13   H     13    1.4430  1.100      3.196149      1.064394      0.677700
   14   O     14    1.7500  1.100     -1.464719     -1.403600     -0.930670
   15   H     15    1.4430  1.100     -2.296149     -1.883810     -1.072590
   16   O     16    1.7500  1.100     -2.749801      0.684449     -0.368810
   17   H     17    1.4430  1.100     -3.284021      1.051399      0.352820
   18   O     18    1.7500  1.100     -1.744320     -0.678010      1.614050
   19   O     19    1.7500  1.100      1.614880     -0.887877      1.549840
 ------------------------------------------------------------------------------
 ExpMin= 9.98D-02 ExpMax= 1.94D+04 ExpMxC= 2.91D+03 IAcc=3 IRadAn=         5 AccDes= 0.00D+00
 Harris functional with IExCor=  402 and IRadAn=       5 diagonalized for initial guess.
 HarFok:  IExCor=  402 AccDes= 0.00D+00 IRadAn=         5 IDoV= 1 UseB2=F ITyADJ=14
 ICtDFT=  3500011 ScaDFX=  1.000000  1.000000  1.000000  1.000000
 FoFCou: FMM=F IPFlag=           0 FMFlag=      100000 FMFlg1=           0
         NFxFlg=           0 DoJE=T BraDBF=F KetDBF=T FulRan=T
         wScrn=  0.000000 ICntrl=       500 IOpCl=  0 I1Cent=   200000004 NGrid=           0
         NMat0=    1 NMatS0=      1 NMatT0=    0 NMatD0=    1 NMtDS0=    0 NMtDT0=    0
 Petite list used in FoFCou.
 Inv3:  Mode=1 IEnd=     8517675.
 Iteration    1 A*A^-1 deviation from unit magnitude is 6.66D-15 for    683.
 Iteration    1 A*A^-1 deviation from orthogonality  is 4.50D-15 for    746     49.
 Iteration    1 A^-1*A deviation from unit magnitude is 6.44D-15 for    683.
 Iteration    1 A^-1*A deviation from orthogonality  is 2.47D-15 for    953    590.
 Error on total polarization charges =  0.00440
 SCF Done:  E(RB3LYP) =  -1290.47101419     A.U. after   13 cycles
            NFock= 13  Conv=0.39D-08     -V/T= 2.0063

 **********************************************************************

            Population analysis using the SCF density.

 **********************************************************************

 Orbital symmetries:
       Occupied  (A) (A) (A) (A) (A) (A) (A) (A) (A) (A) (A) (A)
                 (A) (A) (A) (A) (A) (A) (A) (A) (A) (A) (A) (A)
                 (A) (A) (A) (A) (A) (A) (A) (A) (A) (A) (A) (A)
                 (A) (A) (A) (A) (A) (A) (A) (A) (A) (A) (A) (A)
                 (A) (A) (A) (A) (A)
       Virtual   (A) (A) (A) (A) (A) (A) (A) (A) (A) (A) (A) (A)
                 (A) (A) (A) (A) (A) (A) (A) (A) (A) (A) (A) (A)
                 (A) (A) (A) (A) (A) (A) (A) (A) (A) (A) (A) (A)
                 (A) (A) (A) (A) (A) (A) (A) (A) (A) (A) (A) (A)
                 (A) (A) (A) (A) (A) (A) (A) (A) (A) (A) (A) (A)
                 (A) (A) (A) (A) (A) (A) (A) (A) (A) (A) (A) (A)
                 (A) (A) (A) (A) (A) (A) (A) (A) (A) (A) (A) (A)
                 (A) (A) (A) (A) (A) (A) (A) (A) (A) (A) (A) (A)
                 (A) (A) (A) (A) (A) (A) (A) (A) (A) (A) (A) (A)
                 (A) (A) (A) (A) (A) (A) (A) (A) (A) (A) (A) (A)
                 (A) (A) (A) (A) (A) (A) (A) (A) (A) (A) (A) (A)
                 (A) (A) (A) (A) (A) (A) (A) (A) (A) (A) (A) (A)
                 (A) (A) (A) (A) (A) (A) (A) (A) (A) (A) (A) (A)
                 (A) (A) (A) (A)
 The electronic state is 1-A.
 Alpha  occ. eigenvalues --  -77.23316 -77.23159 -19.19829 -19.19734 -19.19612
 Alpha  occ. eigenvalues --  -19.19414 -19.17809 -19.12667 -19.12529 -10.28066
 Alpha  occ. eigenvalues --  -10.19987  -6.68231  -6.68080  -4.84689  -4.84535
 Alpha  occ. eigenvalues --   -4.84533  -4.84385  -4.84327  -4.84177  -1.09377
 Alpha  occ. eigenvalues --   -1.08757  -1.04840  -1.04183  -1.04077  -0.97604
 Alpha  occ. eigenvalues --   -0.97252  -0.78534  -0.68150  -0.65941  -0.59921
 Alpha  occ. eigenvalues --   -0.57517  -0.56090  -0.53618  -0.50841  -0.47463
 Alpha  occ. eigenvalues --   -0.47035  -0.43839  -0.43102  -0.42387  -0.41406
 Alpha  occ. eigenvalues --   -0.40345  -0.40292  -0.38966  -0.37936  -0.37433
 Alpha  occ. eigenvalues --   -0.37153  -0.35221  -0.35003  -0.32465  -0.30979
 Alpha  occ. eigenvalues --   -0.30799  -0.30495  -0.27330
 Alpha virt. eigenvalues --    0.02742   0.03790   0.05099   0.05583   0.08213
 Alpha virt. eigenvalues --    0.10647   0.11348   0.11955   0.12759   0.12999
 Alpha virt. eigenvalues --    0.14141   0.15030   0.15958   0.18305   0.19371
 Alpha virt. eigenvalues --    0.20394   0.21760   0.24683   0.32421   0.34250
 Alpha virt. eigenvalues --    0.36206   0.37504   0.39221   0.40877   0.41851
 Alpha virt. eigenvalues --    0.42778   0.48868   0.53463   0.55915   0.56965
 Alpha virt. eigenvalues --    0.58684   0.64104   0.70549   0.73489   0.74032
 Alpha virt. eigenvalues --    0.74547   0.75997   0.76901   0.77954   0.79034
 Alpha virt. eigenvalues --    0.80744   0.83251   0.85108   0.85808   0.86455
 Alpha virt. eigenvalues --    0.87355   0.88989   0.89377   0.91396   0.92112
 Alpha virt. eigenvalues --    0.94220   0.94718   0.97162   0.97924   0.98795
 Alpha virt. eigenvalues --    1.00077   1.01247   1.02189   1.03785   1.04405
 Alpha virt. eigenvalues --    1.06939   1.09974   1.11241   1.13487   1.14007
 Alpha virt. eigenvalues --    1.16666   1.17766   1.19293   1.19846   1.22679
 Alpha virt. eigenvalues --    1.27571   1.29214   1.34354   1.37180   1.39693
 Alpha virt. eigenvalues --    1.42521   1.44743   1.47859   1.53904   1.54119
 Alpha virt. eigenvalues --    1.55668   1.55800   1.57298   1.58505   1.63527
 Alpha virt. eigenvalues --    1.64829   1.66600   1.69114   1.70230   1.72470
 Alpha virt. eigenvalues --    1.76109   1.81341   1.81796   1.82929   1.83937
 Alpha virt. eigenvalues --    1.85025   1.85898   1.87403   1.88811   1.92670
 Alpha virt. eigenvalues --    1.95546   1.96544   2.00285   2.03105   2.04096
 Alpha virt. eigenvalues --    2.05596   2.08871   2.09961   2.13735   2.14970
 Alpha virt. eigenvalues --    2.18771   2.22377   2.29578   2.30057   2.32826
 Alpha virt. eigenvalues --    2.33216   2.38122   2.39325   2.41240   2.42193
 Alpha virt. eigenvalues --    2.46830   2.48130   2.49185   2.60153   2.60232
 Alpha virt. eigenvalues --    2.61050   2.61146   2.61339   2.62284   2.64233
 Alpha virt. eigenvalues --    2.67573   2.69351   2.70695   2.72500   2.73032
 Alpha virt. eigenvalues --    2.77849   2.80857   2.82642   2.86530   2.91940
 Alpha virt. eigenvalues --    2.99114   3.21210   3.33162   3.34769   3.34937
 Alpha virt. eigenvalues --    3.36022   3.42178   3.43275   3.45398   3.50397
 Alpha virt. eigenvalues --    3.55159   3.83440   3.87779   3.90825   4.00450
 Alpha virt. eigenvalues --    4.06083   4.23387   4.26748   4.36293   4.57544
     Molecular Orbital Coefficients:
                           1         2         3         4         5
                           O         O         O         O         O
     Eigenvalues --   -77.23316 -77.23159 -19.19829 -19.19734 -19.19612
   1 1   C  1S         -0.00003  -0.00003  -0.00003  -0.00003  -0.00002
   2        2S         -0.00002  -0.00001  -0.00015  -0.00018  -0.00013
   3        2PX         0.00005  -0.00005  -0.00001   0.00000   0.00005
   4        2PY        -0.00000  -0.00000  -0.00005  -0.00007   0.00001
   5        2PZ        -0.00000   0.00000  -0.00005  -0.00003   0.00006
   6        3S          0.00081   0.00080   0.00133   0.00150   0.00079
   7        3PX         0.00041  -0.00041   0.00080  -0.00067   0.00025
   8        3PY        -0.00023  -0.00021   0.00023   0.00021  -0.00054
   9        3PZ         0.00004   0.00006   0.00020   0.00041  -0.00019
  10        4XX        -0.00013  -0.00013  -0.00001  -0.00001   0.00007
  11        4YY        -0.00010  -0.00010   0.00001   0.00000  -0.00000
  12        4ZZ        -0.00007  -0.00008  -0.00001  -0.00003  -0.00002
  13        4XY         0.00004  -0.00004  -0.00003   0.00002  -0.00003
  14        4XZ        -0.00002   0.00002   0.00003  -0.00002   0.00000
  15        4YZ         0.00000   0.00001  -0.00001   0.00000   0.00000
  16 2   C  1S         -0.00002  -0.00001   0.00002   0.00002  -0.00001
  17        2S         -0.00004  -0.00004   0.00008   0.00010  -0.00010
  18        2PX        -0.00002   0.00002  -0.00002   0.00001   0.00001
  19        2PY         0.00004   0.00003   0.00001   0.00001  -0.00001
  20        2PZ         0.00001   0.00001   0.00003   0.00003  -0.00003
  21        3S          0.00016   0.00015  -0.00064  -0.00074   0.00060
  22        3PX        -0.00000  -0.00002  -0.00000   0.00002   0.00009
  23        3PY         0.00011   0.00012   0.00035   0.00041  -0.00022
  24        3PZ         0.00006   0.00007   0.00007   0.00008   0.00000
  25        4XX        -0.00002  -0.00002   0.00004   0.00005   0.00002
  26        4YY        -0.00005  -0.00005  -0.00000  -0.00000  -0.00000
  27        4ZZ        -0.00004  -0.00004   0.00001   0.00002  -0.00001
  28        4XY         0.00000  -0.00000   0.00001  -0.00001  -0.00002
  29        4XZ         0.00002  -0.00002   0.00002  -0.00001  -0.00001
  30        4YZ        -0.00000  -0.00000  -0.00002  -0.00002   0.00000
  31 3   H  1S          0.00000   0.00000   0.00007   0.00008  -0.00004
  32        2S         -0.00018  -0.00020  -0.00005  -0.00005  -0.00008
  33        3PX        -0.00002   0.00002   0.00000  -0.00000  -0.00000
  34        3PY         0.00003   0.00003  -0.00000  -0.00001   0.00001
  35        3PZ         0.00001   0.00001   0.00000   0.00001   0.00000
  36 4   H  1S          0.00000  -0.00001   0.00001   0.00002   0.00002
  37        2S         -0.00021   0.00001  -0.00001  -0.00001  -0.00002
  38        3PX        -0.00001  -0.00000   0.00001   0.00001   0.00002
  39        3PY         0.00004  -0.00001  -0.00001  -0.00002  -0.00000
  40        3PZ         0.00000  -0.00001   0.00000  -0.00001  -0.00002
  41 5   H  1S         -0.00001  -0.00000   0.00002   0.00002  -0.00002
  42        2S          0.00000  -0.00022  -0.00000  -0.00002   0.00005
  43        3PX         0.00000   0.00001  -0.00001  -0.00002  -0.00000
  44        3PY        -0.00001   0.00004  -0.00001  -0.00001  -0.00000
  45        3PZ        -0.00001   0.00000  -0.00000  -0.00000  -0.00001
  46 6   O  1S          0.00000   0.00000   0.00001   0.00001  -0.00001
  47        2S          0.00001   0.00000  -0.00008  -0.00017  -0.00018
  48        2PX        -0.00000   0.00000  -0.00001   0.00002  -0.00006
  49        2PY         0.00001   0.00002  -0.00002  -0.00000   0.00002
  50        2PZ        -0.00001  -0.00001   0.00003   0.00000  -0.00003
  51        3S         -0.00019  -0.00015   0.00045   0.00077   0.00061
  52        3PX        -0.00007   0.00009   0.00011  -0.00010   0.00030
  53        3PY         0.00001  -0.00000  -0.00014  -0.00021  -0.00002
  54        3PZ        -0.00010  -0.00009  -0.00020  -0.00006   0.00018
  55        4XX         0.00000  -0.00001  -0.00003  -0.00010  -0.00008
  56        4YY         0.00001  -0.00000  -0.00003  -0.00009  -0.00016
  57        4ZZ        -0.00000  -0.00001  -0.00009  -0.00013  -0.00013
  58        4XY        -0.00004   0.00003  -0.00003   0.00003  -0.00004
  59        4XZ        -0.00001   0.00001  -0.00002   0.00001   0.00003
  60        4YZ        -0.00000  -0.00000   0.00001  -0.00000  -0.00001
  61 7   H  1S         -0.00002  -0.00001   0.00003   0.00001  -0.00006
  62        2S         -0.00015  -0.00014  -0.00040  -0.00023   0.00028
  63        3PX        -0.00002   0.00002  -0.00005   0.00002  -0.00000
  64        3PY         0.00001   0.00001  -0.00002  -0.00003   0.00003
  65        3PZ        -0.00004  -0.00004  -0.00005  -0.00002   0.00002
  66 8   P  1S          0.99625   0.00091   0.00001  -0.00000   0.00001
  67        2S          0.01418   0.00001  -0.00000  -0.00004   0.00000
  68        2PX         0.00000  -0.00001   0.00002   0.00001  -0.00004
  69        2PY         0.00001   0.00001   0.00003   0.00001  -0.00005
  70        2PZ        -0.00003   0.00000   0.00005   0.00001   0.00002
  71        3S         -0.02723   0.00006   0.00031  -0.00015   0.00037
  72        3PX         0.00010   0.00009  -0.00017  -0.00003  -0.00001
  73        3PY        -0.00008  -0.00008  -0.00003  -0.00009   0.00018
  74        3PZ         0.00004   0.00000  -0.00016  -0.00009  -0.00011
  75        4S          0.00289   0.00009  -0.00341   0.00100  -0.00332
  76        4PX        -0.00014   0.00005   0.00145  -0.00051  -0.00075
  77        4PY         0.00007   0.00008   0.00051  -0.00005  -0.00131
  78        4PZ         0.00004  -0.00013   0.00158   0.00015   0.00205
  79        5XX         0.00942  -0.00010   0.00000   0.00001   0.00014
  80        5YY         0.00947  -0.00000   0.00005  -0.00004   0.00011
  81        5ZZ         0.00948   0.00000   0.00013  -0.00001  -0.00011
  82        5XY         0.00003   0.00002   0.00003   0.00004   0.00014
  83        5XZ        -0.00002  -0.00001  -0.00002   0.00006  -0.00006
  84        5YZ        -0.00000   0.00001   0.00025  -0.00001  -0.00009
  85 9   P  1S         -0.00090   0.99625  -0.00000   0.00001   0.00000
  86        2S         -0.00002   0.01418  -0.00007  -0.00001   0.00002
  87        2PX         0.00001  -0.00000  -0.00000  -0.00002  -0.00000
  88        2PY         0.00001   0.00001   0.00001   0.00004  -0.00000
  89        2PZ        -0.00000  -0.00004   0.00000   0.00005  -0.00000
  90        3S          0.00011  -0.02723  -0.00023   0.00030   0.00013
  91        3PX        -0.00010  -0.00009  -0.00004   0.00019   0.00004
  92        3PY        -0.00007  -0.00008  -0.00008  -0.00005   0.00002
  93        3PZ         0.00002   0.00004   0.00001  -0.00016   0.00003
  94        4S          0.00006   0.00289   0.00168  -0.00326  -0.00066
  95        4PX        -0.00005   0.00013   0.00084  -0.00144  -0.00043
  96        4PY         0.00007   0.00008  -0.00013   0.00058   0.00017
  97        4PZ        -0.00015   0.00005  -0.00007   0.00156  -0.00003
  98        5XX        -0.00012   0.00943  -0.00003  -0.00001  -0.00001
  99        5YY        -0.00002   0.00947  -0.00006   0.00010   0.00002
 100        5ZZ        -0.00002   0.00949  -0.00002   0.00008  -0.00001
 101        5XY        -0.00002  -0.00003  -0.00003  -0.00004  -0.00001
 102        5XZ         0.00000   0.00002  -0.00004  -0.00001   0.00002
 103        5YZ         0.00001   0.00000  -0.00000   0.00024   0.00000
 104 10  O  1S         -0.00001   0.00002   0.99268   0.00291  -0.00050
 105        2S         -0.00005   0.00007   0.02577   0.00012  -0.00026
 106        2PX        -0.00003  -0.00002   0.00083  -0.00002   0.00002
 107        2PY        -0.00005   0.00001   0.00004  -0.00002  -0.00004
 108        2PZ        -0.00008   0.00001   0.00039   0.00002   0.00003
 109        3S          0.00077  -0.00029   0.01280  -0.00026   0.00149
 110        3PX         0.00019   0.00012  -0.00043   0.00011  -0.00016
 111        3PY         0.00014  -0.00011   0.00045   0.00001   0.00052
 112        3PZ         0.00028  -0.00008   0.00032  -0.00013   0.00012
 113        4XX         0.00002   0.00007  -0.00829   0.00012  -0.00022
 114        4YY        -0.00012   0.00006  -0.00825   0.00005  -0.00013
 115        4ZZ        -0.00019   0.00006  -0.00827   0.00003  -0.00013
 116        4XY        -0.00002  -0.00001   0.00001  -0.00003  -0.00004
 117        4XZ         0.00000   0.00000  -0.00001   0.00000  -0.00001
 118        4YZ        -0.00014  -0.00002  -0.00004  -0.00001  -0.00000
 119 11  H  1S         -0.00010  -0.00004   0.00044  -0.00007   0.00004
 120        2S         -0.00020  -0.00005  -0.00091  -0.00001   0.00040
 121        3PX         0.00001   0.00002   0.00002   0.00004  -0.00002
 122        3PY        -0.00001  -0.00001  -0.00004  -0.00003   0.00005
 123        3PZ        -0.00001  -0.00000  -0.00004  -0.00000   0.00004
 124 12  O  1S         -0.00001   0.00000   0.00041   0.00033   0.99268
 125        2S         -0.00005   0.00001  -0.00007  -0.00001   0.02571
 126        2PX         0.00005   0.00001  -0.00000  -0.00000  -0.00008
 127        2PY         0.00006  -0.00000  -0.00004   0.00000  -0.00012
 128        2PZ        -0.00005  -0.00000   0.00003   0.00000   0.00094
 129        3S          0.00076  -0.00008   0.00062   0.00009   0.01301
 130        3PX        -0.00014  -0.00001  -0.00016   0.00002  -0.00062
 131        3PY        -0.00020   0.00002   0.00002  -0.00002  -0.00037
 132        3PZ         0.00026   0.00002  -0.00017  -0.00003  -0.00039
 133        4XX        -0.00016   0.00001  -0.00004  -0.00002  -0.00827
 134        4YY        -0.00011   0.00001  -0.00012  -0.00002  -0.00828
 135        4ZZ         0.00003   0.00001  -0.00011  -0.00003  -0.00830
 136        4XY        -0.00012   0.00000  -0.00003  -0.00000  -0.00003
 137        4XZ         0.00008  -0.00000  -0.00001   0.00000   0.00002
 138        4YZ         0.00006  -0.00000  -0.00004  -0.00000   0.00001
 139 13  H  1S         -0.00012  -0.00000   0.00008   0.00001   0.00044
 140        2S         -0.00024  -0.00001  -0.00029  -0.00000  -0.00088
 141        3PX         0.00001   0.00000   0.00000  -0.00000   0.00006
 142        3PY         0.00001  -0.00000   0.00002  -0.00000   0.00004
 143        3PZ         0.00002  -0.00000  -0.00003  -0.00001   0.00002
 144 14  O  1S          0.00002  -0.00001  -0.00285   0.99268  -0.00035
 145        2S          0.00008  -0.00005   0.00004   0.02578  -0.00008
 146        2PX         0.00002   0.00004   0.00002  -0.00085  -0.00001
 147        2PY         0.00002  -0.00005  -0.00001   0.00002   0.00001
 148        2PZ         0.00000  -0.00007   0.00001   0.00035  -0.00002
 149        3S         -0.00030   0.00075  -0.00071   0.01276   0.00038
 150        3PX        -0.00011  -0.00023  -0.00008   0.00037   0.00006
 151        3PY        -0.00011   0.00015  -0.00008   0.00054   0.00000
 152        3PZ        -0.00005   0.00024  -0.00016   0.00026   0.00011
 153        4XX         0.00006   0.00003   0.00019  -0.00827  -0.00005
 154        4YY         0.00006  -0.00015   0.00014  -0.00825  -0.00005
 155        4ZZ         0.00006  -0.00015   0.00011  -0.00826  -0.00004
 156        4XY         0.00000   0.00004   0.00003  -0.00000   0.00000
 157        4XZ        -0.00000   0.00001  -0.00000   0.00001   0.00001
 158        4YZ        -0.00001  -0.00014  -0.00000  -0.00004   0.00000
 159 15  H  1S         -0.00003  -0.00011  -0.00004   0.00043  -0.00001
 160        2S         -0.00004  -0.00021  -0.00004  -0.00090   0.00001
 161        3PX        -0.00002  -0.00001  -0.00004  -0.00002   0.00000
 162        3PY        -0.00001  -0.00001  -0.00003  -0.00005   0.00000
 163        3PZ        -0.00000  -0.00001  -0.00000  -0.00003  -0.00001
 164 16  O  1S          0.00000  -0.00001  -0.00001   0.00037   0.00003
 165        2S          0.00001  -0.00005   0.00001  -0.00011  -0.00000
 166        2PX        -0.00000  -0.00004   0.00001  -0.00000  -0.00001
 167        2PY        -0.00000   0.00005   0.00000  -0.00003  -0.00001
 168        2PZ        -0.00001  -0.00006  -0.00001   0.00004  -0.00000
 169        3S         -0.00009   0.00074  -0.00007   0.00080   0.00000
 170        3PX         0.00000   0.00011  -0.00008   0.00021   0.00005
 171        3PY         0.00002  -0.00017  -0.00001  -0.00003   0.00002
 172        3PZ         0.00002   0.00030   0.00002  -0.00018  -0.00000
 173        4XX         0.00001  -0.00014   0.00001  -0.00006  -0.00000
 174        4YY         0.00001  -0.00009   0.00001  -0.00015  -0.00001
 175        4ZZ         0.00001  -0.00000   0.00000  -0.00013  -0.00001
 176        4XY        -0.00000   0.00010   0.00000   0.00003  -0.00000
 177        4XZ         0.00000  -0.00012   0.00000   0.00001   0.00000
 178        4YZ        -0.00000   0.00008  -0.00001  -0.00004   0.00000
 179 17  H  1S         -0.00000  -0.00012  -0.00002   0.00008   0.00001
 180        2S         -0.00001  -0.00024   0.00006  -0.00027  -0.00006
 181        3PX        -0.00000  -0.00001   0.00000   0.00000  -0.00001
 182        3PY        -0.00000   0.00001  -0.00000   0.00001  -0.00000
 183        3PZ        -0.00000   0.00002   0.00000  -0.00004  -0.00000
 184 18  O  1S          0.00001   0.00002   0.00002  -0.00003  -0.00001
 185        2S          0.00003  -0.00004   0.00015  -0.00000  -0.00005
 186        2PX         0.00002  -0.00001   0.00003  -0.00006  -0.00000
 187        2PY         0.00000  -0.00005  -0.00000   0.00004   0.00001
 188        2PZ        -0.00001   0.00019  -0.00002  -0.00000   0.00001
 189        3S         -0.00011   0.00042  -0.00074   0.00005   0.00026
 190        3PX        -0.00007   0.00000  -0.00016   0.00030   0.00004
 191        3PY        -0.00002   0.00009  -0.00001  -0.00018  -0.00002
 192        3PZ         0.00005  -0.00040   0.00017  -0.00025  -0.00007
 193        4XX         0.00002   0.00007   0.00012   0.00005  -0.00004
 194        4YY         0.00005   0.00005   0.00010  -0.00001  -0.00002
 195        4ZZ         0.00002  -0.00015   0.00009   0.00008  -0.00002
 196        4XY        -0.00000  -0.00001  -0.00000  -0.00000   0.00000
 197        4XZ         0.00001   0.00005   0.00002  -0.00003  -0.00000
 198        4YZ         0.00001   0.00008  -0.00001   0.00001   0.00001
 199 19  O  1S          0.00002   0.00001  -0.00003   0.00001  -0.00002
 200        2S         -0.00004   0.00004  -0.00005   0.00008   0.00013
 201        2PX        -0.00000  -0.00002   0.00005   0.00001  -0.00003
 202        2PY        -0.00008   0.00001   0.00004   0.00002  -0.00001
 203        2PZ         0.00018  -0.00000   0.00001   0.00000  -0.00000
 204        3S          0.00042  -0.00014   0.00029  -0.00044  -0.00068
 205        3PX         0.00003   0.00008  -0.00027   0.00001   0.00017
 206        3PY         0.00014  -0.00003  -0.00015  -0.00005   0.00014
 207        3PZ        -0.00037   0.00005  -0.00033   0.00004  -0.00012
 208        4XX         0.00007   0.00002   0.00001   0.00006   0.00010
 209        4YY         0.00003   0.00005  -0.00004   0.00004   0.00013
 210        4ZZ        -0.00013   0.00003   0.00006   0.00005   0.00015
 211        4XY         0.00001   0.00000  -0.00000   0.00001  -0.00002
 212        4XZ        -0.00002  -0.00001   0.00003   0.00000  -0.00002
 213        4YZ         0.00011   0.00001  -0.00001  -0.00001  -0.00002
                           6         7         8         9        10
                           O         O         O         O         O
     Eigenvalues --   -19.19414 -19.17809 -19.12667 -19.12529 -10.28066
   1 1   C  1S         -0.00001  -0.00002   0.00001   0.00000   0.99324
   2        2S         -0.00010   0.00010  -0.00000  -0.00002   0.04981
   3        2PX        -0.00006   0.00000   0.00003  -0.00003   0.00001
   4        2PY         0.00002   0.00013   0.00001   0.00000   0.00015
   5        2PZ         0.00005  -0.00031  -0.00006  -0.00005  -0.00058
   6        3S          0.00066  -0.00083  -0.00029  -0.00016  -0.01989
   7        3PX        -0.00028   0.00001   0.00005  -0.00012  -0.00001
   8        3PY        -0.00070  -0.00062  -0.00049  -0.00030  -0.00139
   9        3PZ        -0.00029   0.00086   0.00041   0.00036   0.00044
  10        4XX         0.00007   0.00003   0.00004   0.00004  -0.00865
  11        4YY         0.00000   0.00004   0.00002   0.00001  -0.00863
  12        4ZZ        -0.00002   0.00019   0.00001   0.00001  -0.00844
  13        4XY         0.00004   0.00000  -0.00004   0.00004  -0.00000
  14        4XZ         0.00000   0.00000   0.00001  -0.00002  -0.00000
  15        4YZ        -0.00001  -0.00008  -0.00003  -0.00003   0.00001
  16 2   C  1S         -0.00002   0.00000  -0.00003  -0.00003   0.00120
  17        2S         -0.00013   0.00008  -0.00013  -0.00012  -0.00022
  18        2PX        -0.00000   0.00000  -0.00006   0.00007  -0.00000
  19        2PY        -0.00000   0.00002   0.00004   0.00004  -0.00007
  20        2PZ        -0.00003  -0.00010  -0.00002  -0.00001   0.00005
  21        3S          0.00084   0.00031   0.00059   0.00046   0.00535
  22        3PX        -0.00011   0.00001   0.00047  -0.00051  -0.00000
  23        3PY        -0.00035  -0.00029  -0.00038  -0.00036  -0.00123
  24        3PZ        -0.00004   0.00044  -0.00016  -0.00005  -0.00183
  25        4XX        -0.00001   0.00001  -0.00007  -0.00006  -0.00008
  26        4YY        -0.00001  -0.00000  -0.00006  -0.00005  -0.00033
  27        4ZZ        -0.00002  -0.00008  -0.00004  -0.00004  -0.00018
  28        4XY         0.00002  -0.00000   0.00000  -0.00000  -0.00000
  29        4XZ         0.00001   0.00000  -0.00000   0.00000  -0.00000
  30        4YZ         0.00001  -0.00002   0.00002   0.00001  -0.00013
  31 3   H  1S         -0.00005  -0.00005  -0.00008  -0.00006  -0.00005
  32        2S         -0.00013  -0.00036   0.00023   0.00012  -0.00004
  33        3PX         0.00001   0.00000  -0.00001   0.00001  -0.00000
  34        3PY         0.00002   0.00003  -0.00001  -0.00001   0.00001
  35        3PZ         0.00001   0.00001  -0.00001  -0.00000  -0.00002
  36 4   H  1S         -0.00002   0.00006  -0.00006   0.00004  -0.00021
  37        2S          0.00007   0.00012  -0.00019   0.00030  -0.00054
  38        3PX        -0.00000   0.00000  -0.00002  -0.00002   0.00001
  39        3PY        -0.00000  -0.00001   0.00003  -0.00002  -0.00004
  40        3PZ        -0.00001  -0.00005   0.00000   0.00001  -0.00000
  41 5   H  1S         -0.00000   0.00006   0.00003  -0.00008  -0.00020
  42        2S          0.00003   0.00014   0.00028  -0.00011  -0.00057
  43        3PX        -0.00002   0.00000   0.00002   0.00002  -0.00002
  44        3PY        -0.00001  -0.00001  -0.00002   0.00002  -0.00004
  45        3PZ        -0.00002  -0.00006   0.00002   0.00000  -0.00000
  46 6   O  1S         -0.00005   0.99276   0.00003   0.00003  -0.00015
  47        2S         -0.00014   0.02588   0.00005   0.00006  -0.00044
  48        2PX         0.00005   0.00005   0.00003  -0.00004   0.00000
  49        2PY         0.00002  -0.00100  -0.00002  -0.00002   0.00004
  50        2PZ        -0.00002   0.00024   0.00002   0.00002  -0.00013
  51        3S          0.00042   0.01201  -0.00001  -0.00009   0.00399
  52        3PX        -0.00028   0.00000  -0.00013   0.00016  -0.00001
  53        3PY        -0.00000  -0.00015   0.00008   0.00008  -0.00005
  54        3PZ         0.00015   0.00042   0.00002  -0.00002   0.00091
  55        4XX        -0.00004  -0.00805   0.00005   0.00005  -0.00017
  56        4YY        -0.00011  -0.00799   0.00005   0.00006  -0.00031
  57        4ZZ        -0.00009  -0.00810   0.00007   0.00007  -0.00076
  58        4XY         0.00005  -0.00001   0.00001  -0.00001   0.00000
  59        4XZ        -0.00002  -0.00000  -0.00001   0.00001  -0.00000
  60        4YZ         0.00000   0.00010   0.00001   0.00001   0.00018
  61 7   H  1S         -0.00006   0.00027   0.00005   0.00004   0.00009
  62        2S          0.00031  -0.00126  -0.00019  -0.00020  -0.00026
  63        3PX        -0.00001   0.00001   0.00001  -0.00000  -0.00000
  64        3PY         0.00002  -0.00014  -0.00001  -0.00001  -0.00000
  65        3PZ         0.00002  -0.00016  -0.00002  -0.00002   0.00012
  66 8   P  1S          0.00000   0.00000   0.00002  -0.00000   0.00000
  67        2S          0.00001   0.00004  -0.00007  -0.00004  -0.00008
  68        2PX         0.00000   0.00000   0.00001  -0.00000   0.00002
  69        2PY         0.00000  -0.00000  -0.00002   0.00000  -0.00002
  70        2PZ        -0.00000  -0.00000   0.00000   0.00000   0.00001
  71        3S          0.00008   0.00028   0.00086  -0.00015   0.00000
  72        3PX        -0.00002  -0.00008  -0.00008   0.00006  -0.00047
  73        3PY         0.00000   0.00005   0.00005  -0.00004   0.00033
  74        3PZ         0.00003  -0.00002   0.00015  -0.00004  -0.00011
  75        4S         -0.00042  -0.00094  -0.00301   0.00070   0.00392
  76        4PX         0.00027   0.00012   0.00037  -0.00041  -0.00091
  77        4PY         0.00007  -0.00047   0.00061  -0.00024   0.00153
  78        4PZ        -0.00007   0.00038  -0.00234  -0.00021  -0.00112
  79        5XX        -0.00002  -0.00002  -0.00028  -0.00005  -0.00001
  80        5YY         0.00002   0.00003  -0.00025  -0.00003  -0.00003
  81        5ZZ        -0.00001  -0.00004  -0.00017  -0.00001  -0.00000
  82        5XY         0.00001  -0.00003  -0.00003  -0.00000  -0.00005
  83        5XZ        -0.00003   0.00000  -0.00001   0.00000  -0.00004
  84        5YZ         0.00001   0.00002  -0.00005   0.00001  -0.00009
  85 9   P  1S          0.00001   0.00000  -0.00000   0.00002   0.00000
  86        2S          0.00001   0.00004  -0.00004  -0.00007  -0.00008
  87        2PX         0.00003  -0.00000   0.00000  -0.00001  -0.00003
  88        2PY        -0.00005  -0.00001   0.00000  -0.00001  -0.00002
  89        2PZ         0.00003  -0.00000  -0.00000   0.00000   0.00001
  90        3S          0.00042   0.00029  -0.00015   0.00088   0.00000
  91        3PX         0.00003   0.00006  -0.00005   0.00009   0.00047
  92        3PY         0.00019   0.00010  -0.00003   0.00006   0.00031
  93        3PZ        -0.00011  -0.00000   0.00000   0.00015  -0.00009
  94        4S         -0.00357  -0.00097   0.00053  -0.00311   0.00395
  95        4PX         0.00045  -0.00021   0.00032  -0.00020   0.00112
  96        4PY        -0.00106  -0.00036  -0.00026   0.00028   0.00132
  97        4PZ         0.00221   0.00040  -0.00029  -0.00245  -0.00105
  98        5XX         0.00014  -0.00002  -0.00003  -0.00027  -0.00004
  99        5YY         0.00009   0.00003  -0.00002  -0.00026  -0.00006
 100        5ZZ        -0.00008  -0.00005  -0.00002  -0.00016   0.00001
 101        5XY        -0.00012   0.00002  -0.00001   0.00003   0.00008
 102        5XZ         0.00011   0.00000   0.00001   0.00000   0.00002
 103        5YZ        -0.00013  -0.00000   0.00001  -0.00003  -0.00008
 104 10  O  1S          0.00000  -0.00006   0.00004   0.00005   0.00004
 105        2S         -0.00002  -0.00012   0.00002   0.00013   0.00016
 106        2PX         0.00000   0.00002   0.00001  -0.00001   0.00005
 107        2PY         0.00002  -0.00001   0.00005   0.00000  -0.00002
 108        2PZ        -0.00002   0.00002  -0.00004   0.00002  -0.00003
 109        3S          0.00013   0.00054  -0.00012  -0.00063  -0.00113
 110        3PX        -0.00002  -0.00014  -0.00007   0.00010  -0.00016
 111        3PY        -0.00007   0.00019  -0.00020  -0.00007  -0.00015
 112        3PZ         0.00007  -0.00006   0.00034  -0.00015   0.00002
 113        4XX        -0.00000  -0.00008   0.00003   0.00010   0.00009
 114        4YY        -0.00002  -0.00007   0.00001   0.00010   0.00010
 115        4ZZ        -0.00001  -0.00009   0.00007   0.00008   0.00012
 116        4XY         0.00001   0.00000  -0.00001  -0.00000  -0.00011
 117        4XZ        -0.00001   0.00001  -0.00000   0.00001   0.00002
 118        4YZ        -0.00000  -0.00000   0.00003  -0.00001   0.00002
 119 11  H  1S         -0.00001   0.00002  -0.00001  -0.00000   0.00009
 120        2S         -0.00002   0.00006   0.00004  -0.00006   0.00005
 121        3PX         0.00001  -0.00002  -0.00000   0.00002   0.00000
 122        3PY         0.00000   0.00001   0.00001  -0.00001   0.00001
 123        3PZ        -0.00001   0.00002   0.00000   0.00000  -0.00000
 124 12  O  1S         -0.00004  -0.00006   0.00007  -0.00001   0.00004
 125        2S         -0.00001  -0.00016   0.00004  -0.00002   0.00020
 126        2PX         0.00001   0.00003  -0.00000   0.00000   0.00002
 127        2PY        -0.00000   0.00000   0.00000   0.00001  -0.00002
 128        2PZ        -0.00000  -0.00000  -0.00005  -0.00001  -0.00003
 129        3S          0.00002   0.00074  -0.00017   0.00008  -0.00121
 130        3PX        -0.00006  -0.00022  -0.00005  -0.00001   0.00029
 131        3PY         0.00001  -0.00005  -0.00010  -0.00002   0.00019
 132        3PZ         0.00001  -0.00003   0.00037   0.00004   0.00018
 133        4XX        -0.00000  -0.00008   0.00008  -0.00001   0.00014
 134        4YY        -0.00001  -0.00011   0.00008  -0.00002   0.00009
 135        4ZZ        -0.00002  -0.00011   0.00006  -0.00002   0.00006
 136        4XY         0.00000  -0.00000   0.00001   0.00000  -0.00004
 137        4XZ        -0.00000   0.00001  -0.00002  -0.00001   0.00001
 138        4YZ        -0.00000   0.00001   0.00001  -0.00001  -0.00005
 139 13  H  1S          0.00001  -0.00002  -0.00010  -0.00001   0.00004
 140        2S         -0.00002   0.00007   0.00029   0.00008  -0.00035
 141        3PX         0.00000   0.00000  -0.00002  -0.00000   0.00004
 142        3PY        -0.00000  -0.00000  -0.00001  -0.00000   0.00000
 143        3PZ        -0.00001  -0.00001   0.00004  -0.00000  -0.00000
 144 14  O  1S         -0.00047  -0.00009   0.00003   0.00005   0.00005
 145        2S         -0.00028  -0.00014   0.00010   0.00003   0.00018
 146        2PX        -0.00002  -0.00002  -0.00000  -0.00001  -0.00004
 147        2PY        -0.00004  -0.00002   0.00001   0.00005  -0.00003
 148        2PZ         0.00003   0.00002   0.00000  -0.00005  -0.00002
 149        3S          0.00159   0.00065  -0.00050  -0.00017  -0.00121
 150        3PX         0.00015   0.00014  -0.00002   0.00002   0.00011
 151        3PY         0.00058   0.00023  -0.00010  -0.00016  -0.00011
 152        3PZ         0.00006  -0.00004  -0.00006   0.00038   0.00002
 153        4XX        -0.00025  -0.00011   0.00006   0.00004   0.00011
 154        4YY        -0.00015  -0.00008   0.00006   0.00003   0.00014
 155        4ZZ        -0.00015  -0.00011   0.00006   0.00008   0.00013
 156        4XY         0.00002  -0.00000  -0.00001   0.00001   0.00010
 157        4XZ        -0.00001  -0.00000   0.00000   0.00000  -0.00003
 158        4YZ         0.00001  -0.00000   0.00000   0.00004   0.00003
 159 15  H  1S          0.00005   0.00003   0.00003  -0.00003   0.00007
 160        2S          0.00038   0.00005  -0.00008   0.00005   0.00010
 161        3PX         0.00002   0.00002  -0.00000  -0.00001  -0.00001
 162        3PY         0.00006   0.00001   0.00000   0.00001   0.00000
 163        3PZ         0.00003   0.00001  -0.00000   0.00000   0.00000
 164 16  O  1S          0.99268  -0.00000  -0.00000   0.00007   0.00003
 165        2S          0.02571  -0.00012  -0.00001   0.00003   0.00014
 166        2PX        -0.00003  -0.00001  -0.00001   0.00000  -0.00003
 167        2PY        -0.00003   0.00000   0.00000  -0.00000  -0.00002
 168        2PZ         0.00095  -0.00001  -0.00001  -0.00005  -0.00003
 169        3S          0.01302   0.00058   0.00002  -0.00014  -0.00097
 170        3PX         0.00067   0.00014   0.00001   0.00003  -0.00022
 171        3PY        -0.00039  -0.00002   0.00001  -0.00004   0.00017
 172        3PZ        -0.00027   0.00002   0.00007   0.00039   0.00011
 173        4XX        -0.00827  -0.00005  -0.00001   0.00007   0.00011
 174        4YY        -0.00828  -0.00007  -0.00001   0.00007   0.00004
 175        4ZZ        -0.00830  -0.00006  -0.00000   0.00005   0.00002
 176        4XY         0.00002  -0.00000   0.00000  -0.00001   0.00005
 177        4XZ        -0.00002  -0.00002   0.00001   0.00002  -0.00000
 178        4YZ         0.00002   0.00002  -0.00001   0.00000  -0.00005
 179 17  H  1S          0.00043  -0.00005  -0.00002  -0.00010   0.00004
 180        2S         -0.00088   0.00004   0.00008   0.00028  -0.00031
 181        3PX        -0.00006  -0.00001   0.00000   0.00001  -0.00004
 182        3PY         0.00005   0.00000  -0.00001  -0.00001  -0.00000
 183        3PZ         0.00001   0.00001  -0.00000   0.00004  -0.00002
 184 18  O  1S         -0.00002   0.00000  -0.00006   0.99272   0.00001
 185        2S          0.00011   0.00003  -0.00005   0.02557   0.00006
 186        2PX         0.00003   0.00000  -0.00000   0.00007   0.00002
 187        2PY        -0.00002  -0.00001  -0.00001   0.00023   0.00003
 188        2PZ         0.00000  -0.00001  -0.00001  -0.00082   0.00001
 189        3S         -0.00056  -0.00013   0.00017   0.01294  -0.00031
 190        3PX        -0.00015   0.00001   0.00001   0.00016  -0.00023
 191        3PY         0.00015   0.00005   0.00008   0.00023  -0.00026
 192        3PZ        -0.00017  -0.00001   0.00003  -0.00049   0.00012
 193        4XX         0.00008   0.00003  -0.00001  -0.00821   0.00003
 194        4YY         0.00011   0.00004  -0.00004  -0.00819  -0.00001
 195        4ZZ         0.00014   0.00004  -0.00004  -0.00816   0.00000
 196        4XY         0.00002  -0.00001  -0.00000   0.00000   0.00002
 197        4XZ         0.00001   0.00000   0.00001  -0.00001   0.00004
 198        4YZ        -0.00002  -0.00000  -0.00001  -0.00002   0.00002
 199 19  O  1S         -0.00001   0.00000   0.99272   0.00004   0.00000
 200        2S         -0.00003   0.00004   0.02558  -0.00002   0.00003
 201        2PX        -0.00001  -0.00000  -0.00001   0.00001  -0.00002
 202        2PY         0.00000  -0.00001   0.00034  -0.00001   0.00002
 203        2PZ         0.00001  -0.00001  -0.00078  -0.00001   0.00002
 204        3S          0.00018  -0.00017   0.01286   0.00003  -0.00012
 205        3PX         0.00001   0.00000  -0.00011  -0.00003   0.00021
 206        3PY         0.00001   0.00006   0.00030   0.00007  -0.00025
 207        3PZ        -0.00005   0.00000  -0.00045   0.00005   0.00009
 208        4XX        -0.00003   0.00003  -0.00820   0.00001   0.00000
 209        4YY        -0.00001   0.00005  -0.00818  -0.00003  -0.00004
 210        4ZZ        -0.00001   0.00004  -0.00816  -0.00003  -0.00002
 211        4XY         0.00000   0.00001  -0.00000   0.00000  -0.00001
 212        4XZ         0.00000  -0.00000   0.00001  -0.00000  -0.00004
 213        4YZ         0.00000  -0.00001  -0.00002  -0.00002   0.00002
                          11        12        13        14        15
                           O         O         O         O         O
     Eigenvalues --   -10.19987  -6.68231  -6.68080  -4.84689  -4.84535
   1 1   C  1S         -0.00140   0.00011   0.00011   0.00002  -0.00006
   2        2S         -0.00007   0.00077   0.00075   0.00013   0.00017
   3        2PX         0.00001  -0.00004   0.00004   0.00020  -0.00023
   4        2PY        -0.00013  -0.00009  -0.00006   0.00041  -0.00014
   5        2PZ        -0.00001   0.00012   0.00012   0.00011   0.00029
   6        3S          0.00346  -0.00403  -0.00397  -0.00116   0.00130
   7        3PX         0.00001  -0.00201   0.00201  -0.00122   0.00072
   8        3PY         0.00223   0.00079   0.00062  -0.00377   0.00187
   9        3PZ         0.00107  -0.00035  -0.00047  -0.00172  -0.00419
  10        4XX        -0.00010   0.00010   0.00010  -0.00011  -0.00014
  11        4YY        -0.00032   0.00022   0.00021   0.00008  -0.00020
  12        4ZZ        -0.00017   0.00016   0.00016  -0.00001   0.00015
  13        4XY         0.00000   0.00010  -0.00010  -0.00017   0.00013
  14        4XZ        -0.00000   0.00001  -0.00001  -0.00019  -0.00035
  15        4YZ        -0.00009   0.00002   0.00000  -0.00015   0.00009
  16 2   C  1S          0.99298   0.00000  -0.00000   0.00002   0.00001
  17        2S          0.05017  -0.00009  -0.00011  -0.00009  -0.00004
  18        2PX        -0.00002  -0.00005   0.00004   0.00004  -0.00001
  19        2PY        -0.00032  -0.00007  -0.00007  -0.00022  -0.00003
  20        2PZ        -0.00007  -0.00005  -0.00006  -0.00009  -0.00002
  21        3S         -0.01755   0.00043   0.00058   0.00191   0.00008
  22        3PX         0.00008   0.00124  -0.00116   0.00019   0.00040
  23        3PY         0.00188  -0.00123  -0.00138  -0.00147  -0.00123
  24        3PZ         0.00087  -0.00025  -0.00026  -0.00125   0.00091
  25        4XX        -0.00883   0.00003   0.00001   0.00012   0.00003
  26        4YY        -0.00904   0.00016   0.00016   0.00021   0.00027
  27        4ZZ        -0.00887   0.00001   0.00001   0.00012  -0.00010
  28        4XY         0.00000  -0.00010   0.00010  -0.00013  -0.00004
  29        4XZ        -0.00000  -0.00009   0.00009  -0.00004   0.00001
  30        4YZ        -0.00016   0.00003   0.00004   0.00011  -0.00010
  31 3   H  1S          0.00000  -0.00012  -0.00014  -0.00007  -0.00020
  32        2S          0.00226   0.00057   0.00058   0.00102   0.00037
  33        3PX        -0.00000  -0.00000  -0.00000   0.00006   0.00007
  34        3PY        -0.00011  -0.00003  -0.00003  -0.00003  -0.00010
  35        3PZ         0.00022  -0.00005  -0.00005  -0.00005  -0.00009
  36 4   H  1S         -0.00009  -0.00017   0.00011  -0.00018   0.00004
  37        2S          0.00231   0.00056   0.00067   0.00121   0.00039
  38        3PX         0.00018  -0.00001  -0.00000   0.00002  -0.00002
  39        3PY         0.00006  -0.00009   0.00003  -0.00016   0.00003
  40        3PZ        -0.00009  -0.00004   0.00005   0.00002  -0.00002
  41 5   H  1S         -0.00006   0.00012  -0.00016  -0.00001   0.00010
  42        2S          0.00233   0.00066   0.00067  -0.00002   0.00041
  43        3PX        -0.00019  -0.00000   0.00002  -0.00005   0.00002
  44        3PY         0.00006   0.00003  -0.00010   0.00004   0.00007
  45        3PZ        -0.00009   0.00005  -0.00004   0.00002  -0.00003
  46 6   O  1S         -0.00000  -0.00008  -0.00007   0.00001   0.00001
  47        2S         -0.00004  -0.00037  -0.00035   0.00007   0.00014
  48        2PX         0.00000  -0.00011   0.00011  -0.00006  -0.00009
  49        2PY        -0.00007   0.00002   0.00002  -0.00009   0.00010
  50        2PZ        -0.00007  -0.00001  -0.00001   0.00000  -0.00004
  51        3S         -0.00027   0.00188   0.00172  -0.00030  -0.00196
  52        3PX        -0.00000   0.00087  -0.00093   0.00039   0.00028
  53        3PY         0.00030  -0.00036  -0.00029   0.00091  -0.00042
  54        3PZ         0.00025   0.00075   0.00074   0.00001  -0.00106
  55        4XX        -0.00012  -0.00018  -0.00015   0.00010  -0.00001
  56        4YY         0.00003  -0.00022  -0.00022  -0.00016   0.00008
  57        4ZZ         0.00009  -0.00018  -0.00017   0.00005  -0.00012
  58        4XY         0.00000  -0.00002   0.00003  -0.00000  -0.00008
  59        4XZ         0.00000   0.00015  -0.00015   0.00009   0.00001
  60        4YZ         0.00006  -0.00008  -0.00008   0.00013   0.00002
  61 7   H  1S          0.00014  -0.00008  -0.00008   0.00015  -0.00019
  62        2S          0.00022   0.00068   0.00075  -0.00045  -0.00039
  63        3PX        -0.00000   0.00003  -0.00004  -0.00009  -0.00006
  64        3PY        -0.00001  -0.00001   0.00002   0.00010  -0.00004
  65        3PZ         0.00004   0.00013   0.00012  -0.00009  -0.00007
  66 8   P  1S         -0.00000  -0.27419  -0.00009  -0.00015  -0.00170
  67        2S         -0.00009   1.02396   0.00024   0.00063   0.00678
  68        2PX        -0.00001   0.00356   0.00003   0.41331  -0.64846
  69        2PY        -0.00000  -0.00017  -0.00001   0.81309  -0.02909
  70        2PZ        -0.00002  -0.00487  -0.00001   0.38926   0.74920
  71        3S         -0.00027   0.07533  -0.00052   0.00009   0.00003
  72        3PX         0.00017  -0.00010  -0.00018   0.01304  -0.02013
  73        3PY        -0.00011   0.00048   0.00009   0.02518  -0.00117
  74        3PZ         0.00018  -0.00095   0.00005   0.01247   0.02400
  75        4S          0.00160  -0.01283   0.00148  -0.00069  -0.00539
  76        4PX        -0.00026   0.00183  -0.00165  -0.00280   0.00527
  77        4PY         0.00099  -0.00100  -0.00087  -0.00575  -0.00173
  78        4PZ         0.00047   0.00048   0.00066  -0.00281  -0.00220
  79        5XX        -0.00010  -0.01731   0.00034   0.00123   0.00014
  80        5YY        -0.00006  -0.01726  -0.00012   0.00031   0.00016
  81        5ZZ        -0.00007  -0.01709  -0.00006  -0.00141   0.00048
  82        5XY         0.00003   0.00019  -0.00006   0.00129  -0.00116
  83        5XZ        -0.00003   0.00002   0.00001  -0.00028   0.00115
  84        5YZ        -0.00001   0.00013  -0.00001  -0.00172  -0.00123
  85 9   P  1S         -0.00000   0.00008  -0.27419   0.00000  -0.00001
  86        2S         -0.00010  -0.00040   1.02397  -0.00000  -0.00002
  87        2PX         0.00002  -0.00003  -0.00310  -0.00067   0.01426
  88        2PY        -0.00001  -0.00001  -0.00095  -0.00008  -0.02044
  89        2PZ        -0.00001  -0.00000  -0.00509   0.00087  -0.00250
  90        3S         -0.00032  -0.00059   0.07539   0.00023  -0.00035
  91        3PX        -0.00024   0.00017   0.00018  -0.00051   0.00097
  92        3PY        -0.00004   0.00010   0.00036  -0.00041  -0.00036
  93        3PZ         0.00014   0.00005  -0.00097   0.00017  -0.00001
  94        4S          0.00177   0.00157  -0.01313  -0.00092   0.00203
  95        4PX         0.00018   0.00159  -0.00188  -0.00047   0.00157
  96        4PY         0.00122  -0.00076  -0.00102   0.00046  -0.00023
  97        4PZ         0.00040   0.00079   0.00057   0.00030   0.00171
  98        5XX        -0.00010   0.00035  -0.01732  -0.00042   0.00047
  99        5YY        -0.00006  -0.00012  -0.01722   0.00002  -0.00002
 100        5ZZ        -0.00006  -0.00003  -0.01715  -0.00004  -0.00004
 101        5XY        -0.00003   0.00006  -0.00018  -0.00005   0.00016
 102        5XZ         0.00004  -0.00000  -0.00003   0.00011   0.00011
 103        5YZ        -0.00001  -0.00001   0.00014   0.00012   0.00011
 104 10  O  1S         -0.00002  -0.00004  -0.00001   0.00030  -0.00001
 105        2S         -0.00009   0.00046  -0.00001  -0.00077  -0.00156
 106        2PX         0.00002   0.00009   0.00005   0.00001  -0.00011
 107        2PY         0.00000   0.00016  -0.00005  -0.00034  -0.00038
 108        2PZ        -0.00003   0.00029  -0.00000  -0.00048  -0.00034
 109        3S          0.00038  -0.00301  -0.00020   0.00346   0.00753
 110        3PX        -0.00015  -0.00104  -0.00023   0.00038   0.00129
 111        3PY         0.00005  -0.00086   0.00033   0.00170   0.00229
 112        3PZ         0.00016  -0.00177   0.00002   0.00287   0.00188
 113        4XX        -0.00009  -0.00004  -0.00005   0.00012  -0.00045
 114        4YY        -0.00007   0.00039  -0.00003  -0.00034  -0.00058
 115        4ZZ        -0.00006   0.00048  -0.00004   0.00001  -0.00123
 116        4XY        -0.00000   0.00010   0.00005  -0.00026   0.00010
 117        4XZ        -0.00000  -0.00003   0.00001  -0.00017   0.00029
 118        4YZ         0.00002   0.00013   0.00007  -0.00002   0.00008
 119 11  H  1S          0.00002   0.00054   0.00015  -0.00048  -0.00067
 120        2S          0.00018   0.00090   0.00026  -0.00071  -0.00149
 121        3PX        -0.00002  -0.00007  -0.00006   0.00013  -0.00002
 122        3PY         0.00002   0.00016   0.00003  -0.00019  -0.00029
 123        3PZ         0.00000   0.00019   0.00002  -0.00031  -0.00020
 124 12  O  1S          0.00003  -0.00004  -0.00003  -0.00017   0.00014
 125        2S          0.00015   0.00047  -0.00013   0.00114  -0.00103
 126        2PX        -0.00003  -0.00014  -0.00004  -0.00034   0.00048
 127        2PY         0.00000  -0.00024   0.00004  -0.00028   0.00036
 128        2PZ        -0.00001   0.00018   0.00002   0.00025   0.00002
 129        3S         -0.00069  -0.00319   0.00075  -0.00512   0.00500
 130        3PX         0.00034   0.00080   0.00006   0.00181  -0.00287
 131        3PY         0.00005   0.00135  -0.00023   0.00142  -0.00234
 132        3PZ         0.00006  -0.00154  -0.00012  -0.00233  -0.00019
 133        4XX         0.00007   0.00046  -0.00009   0.00037  -0.00048
 134        4YY         0.00010   0.00034  -0.00008   0.00071  -0.00013
 135        4ZZ         0.00011  -0.00009  -0.00008  -0.00007  -0.00042
 136        4XY         0.00001   0.00007  -0.00000  -0.00009   0.00013
 137        4XZ         0.00003  -0.00025   0.00000   0.00001   0.00040
 138        4YZ         0.00003  -0.00017   0.00000  -0.00003   0.00027
 139 13  H  1S         -0.00002   0.00069   0.00000   0.00090  -0.00012
 140        2S         -0.00040   0.00111   0.00021   0.00213   0.00027
 141        3PX         0.00005  -0.00021  -0.00003  -0.00035   0.00014
 142        3PY         0.00003  -0.00021   0.00000  -0.00023   0.00017
 143        3PZ         0.00003  -0.00010  -0.00000  -0.00005  -0.00001
 144 14  O  1S         -0.00003  -0.00002  -0.00005   0.00009  -0.00003
 145        2S         -0.00012  -0.00007   0.00044   0.00033  -0.00009
 146        2PX        -0.00002  -0.00008  -0.00012   0.00018  -0.00003
 147        2PY        -0.00001  -0.00006   0.00018   0.00007  -0.00004
 148        2PZ        -0.00003   0.00001   0.00027   0.00005   0.00005
 149        3S          0.00048   0.00003  -0.00288  -0.00102   0.00026
 150        3PX         0.00015   0.00039   0.00118  -0.00105   0.00015
 151        3PY         0.00010   0.00040  -0.00096  -0.00057   0.00032
 152        3PZ         0.00018  -0.00003  -0.00158  -0.00030  -0.00018
 153        4XX        -0.00011  -0.00008  -0.00006   0.00037  -0.00006
 154        4YY        -0.00008  -0.00008   0.00039   0.00031  -0.00005
 155        4ZZ        -0.00008  -0.00011   0.00044   0.00031  -0.00011
 156        4XY         0.00000  -0.00005  -0.00015   0.00005  -0.00006
 157        4XZ         0.00000  -0.00001   0.00001   0.00001   0.00001
 158        4YZ         0.00002   0.00006   0.00014  -0.00007   0.00004
 159 15  H  1S          0.00002   0.00019   0.00054  -0.00039   0.00006
 160        2S          0.00021   0.00024   0.00092  -0.00016   0.00033
 161        3PX         0.00003   0.00006   0.00006  -0.00014   0.00003
 162        3PY         0.00002   0.00004   0.00019  -0.00008   0.00003
 163        3PZ         0.00000   0.00002   0.00017  -0.00000   0.00004
 164 16  O  1S          0.00005  -0.00003  -0.00005   0.00000  -0.00003
 165        2S          0.00023  -0.00011   0.00042   0.00000  -0.00017
 166        2PX         0.00005   0.00004   0.00012   0.00001   0.00003
 167        2PY         0.00001   0.00004  -0.00022   0.00001   0.00006
 168        2PZ         0.00001   0.00002   0.00022   0.00002   0.00004
 169        3S         -0.00101   0.00066  -0.00295  -0.00003   0.00101
 170        3PX        -0.00048  -0.00005  -0.00058  -0.00001  -0.00003
 171        3PY         0.00005  -0.00023   0.00116  -0.00005  -0.00032
 172        3PZ        -0.00005  -0.00008  -0.00176  -0.00007  -0.00016
 173        4XX         0.00013  -0.00008   0.00037  -0.00001  -0.00011
 174        4YY         0.00017  -0.00007   0.00027   0.00002  -0.00010
 175        4ZZ         0.00017  -0.00007  -0.00004  -0.00001  -0.00012
 176        4XY        -0.00002   0.00000  -0.00002  -0.00002   0.00000
 177        4XZ        -0.00005  -0.00000   0.00033   0.00001  -0.00002
 178        4YZ         0.00003  -0.00000  -0.00020  -0.00001   0.00001
 179 17  H  1S          0.00000  -0.00001   0.00068   0.00004   0.00003
 180        2S         -0.00046   0.00023   0.00114  -0.00013  -0.00004
 181        3PX        -0.00006   0.00003   0.00022  -0.00000   0.00001
 182        3PY         0.00004   0.00000  -0.00020   0.00001   0.00002
 183        3PZ         0.00004   0.00000  -0.00006  -0.00001  -0.00000
 184 18  O  1S          0.00006   0.00003  -0.00024   0.00001   0.00002
 185        2S          0.00026   0.00014   0.00042   0.00006   0.00015
 186        2PX         0.00003  -0.00003   0.00003   0.00002  -0.00011
 187        2PY         0.00007  -0.00003   0.00021   0.00002  -0.00003
 188        2PZ        -0.00001  -0.00001  -0.00086   0.00000   0.00001
 189        3S         -0.00126  -0.00091  -0.00221  -0.00025  -0.00113
 190        3PX        -0.00014  -0.00007   0.00018  -0.00005   0.00017
 191        3PY        -0.00040   0.00012  -0.00039  -0.00012   0.00006
 192        3PZ         0.00015   0.00008   0.00202   0.00006  -0.00001
 193        4XX         0.00018   0.00011  -0.00006   0.00004   0.00010
 194        4YY         0.00018   0.00003   0.00000   0.00006  -0.00003
 195        4ZZ         0.00021   0.00010   0.00084   0.00003   0.00010
 196        4XY        -0.00001   0.00000   0.00007   0.00001   0.00002
 197        4XZ         0.00001   0.00001  -0.00020   0.00002   0.00001
 198        4YZ         0.00005  -0.00004  -0.00032   0.00002  -0.00005
 199 19  O  1S          0.00007  -0.00024   0.00002  -0.00006  -0.00058
 200        2S          0.00027   0.00044   0.00011  -0.00004   0.00082
 201        2PX        -0.00004   0.00003   0.00005   0.00007  -0.00013
 202        2PY         0.00008   0.00033  -0.00004   0.00014   0.00048
 203        2PZ        -0.00001  -0.00082  -0.00001   0.00001  -0.00105
 204        3S         -0.00129  -0.00227  -0.00078   0.00025  -0.00317
 205        3PX         0.00015  -0.00031  -0.00003  -0.00035   0.00038
 206        3PY        -0.00043  -0.00067   0.00013  -0.00055  -0.00101
 207        3PZ         0.00014   0.00194   0.00009  -0.00012   0.00230
 208        4XX         0.00021  -0.00008   0.00009  -0.00010  -0.00019
 209        4YY         0.00018   0.00012  -0.00000  -0.00020   0.00002
 210        4ZZ         0.00022   0.00078   0.00005   0.00010   0.00074
 211        4XY         0.00002  -0.00006  -0.00000  -0.00009   0.00001
 212        4XZ        -0.00001   0.00010  -0.00001   0.00012  -0.00005
 213        4YZ         0.00004  -0.00045  -0.00005   0.00016  -0.00045
                          16        17        18        19        20
                           O         O         O         O         O
     Eigenvalues --    -4.84533  -4.84385  -4.84327  -4.84177  -1.09377
   1 1   C  1S          0.00001  -0.00006  -0.00012   0.00011  -0.03346
   2        2S          0.00013   0.00020  -0.00188   0.00186   0.05360
   3        2PX        -0.00023   0.00018  -0.00009  -0.00006   0.00275
   4        2PY         0.00039  -0.00004  -0.00011   0.00008  -0.00542
   5        2PZ         0.00010   0.00032   0.00003  -0.00004  -0.02338
   6        3S         -0.00110   0.00098   0.00866  -0.00848   0.06007
   7        3PX         0.00158  -0.00046   0.00535   0.00508   0.00363
   8        3PY        -0.00370   0.00080   0.00010   0.00024  -0.01794
   9        3PZ        -0.00083  -0.00446  -0.00213   0.00214   0.01167
  10        4XX        -0.00013  -0.00015   0.00024  -0.00024   0.00247
  11        4YY         0.00012  -0.00018  -0.00021   0.00018  -0.00080
  12        4ZZ        -0.00008   0.00014   0.00000   0.00001   0.00246
  13        4XY         0.00014  -0.00010  -0.00048  -0.00048  -0.00060
  14        4XZ         0.00013   0.00038  -0.00002  -0.00003   0.00014
  15        4YZ        -0.00012   0.00004  -0.00009   0.00010  -0.00144
  16 2   C  1S          0.00004   0.00000   0.00003  -0.00003  -0.00712
  17        2S          0.00000  -0.00011   0.00028  -0.00028   0.01123
  18        2PX        -0.00006  -0.00000  -0.00001   0.00000   0.00031
  19        2PY        -0.00023  -0.00007   0.00015  -0.00014  -0.00616
  20        2PZ        -0.00008  -0.00005   0.00010  -0.00009  -0.00560
  21        3S          0.00132   0.00081  -0.00190   0.00180   0.00685
  22        3PX        -0.00005  -0.00039  -0.00175  -0.00179   0.00080
  23        3PY        -0.00113  -0.00166   0.00125  -0.00121  -0.00724
  24        3PZ        -0.00129   0.00061   0.00109  -0.00097  -0.00159
  25        4XX         0.00016   0.00002  -0.00003   0.00002  -0.00042
  26        4YY         0.00019   0.00029  -0.00011   0.00010   0.00035
  27        4ZZ         0.00016  -0.00009  -0.00008   0.00007   0.00002
  28        4XY         0.00014   0.00005   0.00021   0.00019  -0.00006
  29        4XZ         0.00004  -0.00001   0.00017   0.00017  -0.00000
  30        4YZ         0.00011  -0.00007  -0.00012   0.00011   0.00154
  31 3   H  1S         -0.00002  -0.00023   0.00009  -0.00009   0.00192
  32        2S          0.00102   0.00052  -0.00057   0.00051   0.00022
  33        3PX        -0.00006  -0.00007   0.00006   0.00006  -0.00001
  34        3PY        -0.00002  -0.00010  -0.00001   0.00001   0.00028
  35        3PZ        -0.00004  -0.00009   0.00001  -0.00001  -0.00026
  36 4   H  1S         -0.00001   0.00007   0.00026   0.00006   0.00292
  37        2S         -0.00011   0.00047  -0.00018   0.00055   0.00681
  38        3PX         0.00006  -0.00002   0.00002   0.00003  -0.00025
  39        3PY         0.00003   0.00007   0.00011   0.00004  -0.00074
  40        3PZ         0.00002  -0.00002   0.00006   0.00009  -0.00017
  41 5   H  1S         -0.00016   0.00002  -0.00005  -0.00026   0.00265
  42        2S          0.00135   0.00057  -0.00052   0.00014   0.00700
  43        3PX        -0.00003   0.00002   0.00004   0.00001   0.00033
  44        3PY        -0.00019   0.00000  -0.00004  -0.00010  -0.00067
[...]
 196        4XY        -0.00171   0.00308   0.00959
 197        4XZ         0.03566   0.01613   0.00754
 198        4YZ         0.01130   0.02356  -0.02726
 199 19  O  1S         -0.07989   0.09197  -0.06560
 200        2S         -0.10659   0.12444  -0.10144
 201        2PX         0.01412  -0.01891   0.00763
 202        2PY         0.01048   0.02009  -0.03474
 203        2PZ         0.03380  -0.01631   0.01878
 204        3S          0.99938  -1.14722   0.82365
 205        3PX        -0.07305   0.10944  -0.00726
 206        3PY        -0.05081  -0.09104   0.15314
 207        3PZ        -0.23260   0.11921  -0.10996
 208        4XX        -0.28060   0.31464  -0.22139
 209        4YY        -0.28691   0.30568  -0.21074
 210        4ZZ        -0.19845   0.28086  -0.21090
 211        4XY        -0.01512   0.00533  -0.00930
 212        4XZ         0.00732  -0.02833  -0.00852
 213        4YZ        -0.00014   0.02052  -0.03228
          Condensed to atoms (all electrons):
 Mulliken charges:
               1
     1  C   -0.110777
     2  C   -0.355443
     3  H    0.149904
     4  H    0.144944
     5  H    0.143868
     6  O   -0.540689
     7  H    0.347240
     8  P    1.102865
     9  P    1.102966
    10  O   -0.582632
    11  H    0.377594
    12  O   -0.575112
    13  H    0.372728
    14  O   -0.583048
    15  H    0.376173
    16  O   -0.576230
    17  H    0.371771
    18  O   -0.584100
    19  O   -0.582022
 Sum of Mulliken charges =  -0.00000
 Mulliken charges with hydrogens summed into heavy atoms:
               1
     1  C   -0.110777
     2  C    0.083273
     6  O   -0.193449
     8  P    1.102865
     9  P    1.102966
    10  O   -0.205038
    12  O   -0.202384
    14  O   -0.206875
    16  O   -0.204459
    18  O   -0.584100
    19  O   -0.582022
 Electronic spatial extent (au):  <R**2>=           1983.8608
 Charge=             -0.0000 electrons
 Dipole moment (field-independent basis, Debye):
    X=              0.3103    Y=              1.8820    Z=             -3.5250  Tot=              4.0080
 There are a total of      426666 grid points.
 ElSum from          density=      106.0000053702
 ElSum from atomic densities=      106.0000025315
 Hirshfeld populations at iteration   1 (CA, CB, DipXYZ):
               1          2          3          4          5
     1  C    2.995145   2.995145   0.000900   0.051567  -0.059618
     2  C    3.040399   3.040399  -0.001107   0.019597   0.017012
     3  H    0.475924   0.475924   0.002375  -0.004803   0.151544
     4  H    0.477496   0.477496   0.110306   0.100624  -0.022132
     5  H    0.476950   0.476950  -0.114070   0.097911  -0.021738
     6  O    4.110187   4.110187   0.006750  -0.125853   0.049344
     7  H    0.420664   0.420664   0.003633  -0.124219  -0.150956
     8  P    7.263271   7.263271   0.083820   0.034387  -0.095866
     9  P    7.264277   7.264277  -0.075352   0.011909  -0.104167
    10  O    4.112960   4.112960   0.114861  -0.015635   0.002541
    11  H    0.392837   0.392837   0.207763  -0.111969  -0.059208
    12  O    4.117674   4.117674   0.014763   0.015198   0.126885
    13  H    0.395320   0.395320   0.124101   0.094062   0.183409
    14  O    4.114475   4.114475  -0.116681  -0.026572   0.006208
    15  H    0.393144   0.393144  -0.196700  -0.134356  -0.050333
    16  O    4.119172   4.119172  -0.030877   0.024409   0.124316
    17  H    0.396033   0.396033  -0.147492   0.105426   0.157549
    18  O    4.217400   4.217400   0.009099   0.027638  -0.053014
    19  O    4.216674   4.216674  -0.004648   0.032171  -0.049696
       Tot  53.000003  53.000003  -0.008556   0.071490   0.152082

 Dip from Atomic Chgs              0.130693   0.668945  -1.538878
         Total Dipole              0.122136   0.740435  -1.386796

 Hirshfeld charges, spin densities, dipoles, and CM5 charges using IRadAn=      5:
              Q-H        S-H        Dx         Dy         Dz        Q-CM5   
     1  C    0.009710   0.000000   0.000900   0.051567  -0.059618   0.078399
     2  C   -0.080797   0.000000  -0.001107   0.019597   0.017012  -0.214750
     3  H    0.048151   0.000000   0.002375  -0.004803   0.151544   0.105203
     4  H    0.045007   0.000000   0.110306   0.100624  -0.022132   0.103672
     5  H    0.046100   0.000000  -0.114070   0.097911  -0.021738   0.104394
     6  O   -0.220375   0.000000   0.006750  -0.125853   0.049344  -0.414290
     7  H    0.158671   0.000000   0.003633  -0.124219  -0.150956   0.342261
     8  P    0.473458   0.000000   0.083820   0.034387  -0.095866   0.431733
     9  P    0.471447   0.000000  -0.075352   0.011909  -0.104167   0.429768
    10  O   -0.225920   0.000000   0.114861  -0.015635   0.002541  -0.401991
    11  H    0.214325   0.000000   0.207763  -0.111969  -0.059208   0.392852
    12  O   -0.235347   0.000000   0.014763   0.015198   0.126885  -0.411269
    13  H    0.209360   0.000000   0.124101   0.094062   0.183409   0.388100
    14  O   -0.228949   0.000000  -0.116681  -0.026572   0.006208  -0.403279
    15  H    0.213713   0.000000  -0.196700  -0.134356  -0.050333   0.391994
    16  O   -0.238345   0.000000  -0.030877   0.024409   0.124316  -0.413534
    17  H    0.207935   0.000000  -0.147492   0.105426   0.157549   0.386970
    18  O   -0.434801   0.000000   0.009099   0.027638  -0.053014  -0.449105
    19  O   -0.433349   0.000000  -0.004648   0.032171  -0.049696  -0.447131
       Tot  -0.000005   0.000000  -0.008556   0.071490   0.152082  -0.000005
 Hirshfeld charges with hydrogens summed into heavy atoms:
              Q-H       Q-CM5   
     1  C    0.009710   0.078399
     2  C    0.058461   0.098519
     6  O   -0.061704  -0.072030
     8  P    0.473458   0.431733
     9  P    0.471447   0.429768
    10  O   -0.011594  -0.009140
    12  O   -0.025987  -0.023170
    14  O   -0.015236  -0.011285
    16  O   -0.030410  -0.026564
    18  O   -0.434801  -0.449105
    19  O   -0.433349  -0.447131
 
 EQQ= 0.000000000000E+00 EQD= 0.000000000000E+00 EDD= 0.189954147086E-01
 EQQ+QD+DD= 0.189954147086E-01
 
 Orbital energies and kinetic energies (alpha):
                                 1                 2
   1         O               -77.233160        106.045366
   2         O               -77.231588        106.045361
   3         O               -19.198292         29.025055
   4         O               -19.197337         29.025178
   5         O               -19.196116         29.025132
   6         O               -19.194145         29.025161
   7         O               -19.178087         29.028112
   8         O               -19.126666         29.027862
   9         O               -19.125294         29.027757
  10         O               -10.280664         15.890540
  11         O               -10.199874         15.882912
  12         O                -6.682308         15.694071
  13         O                -6.680800         15.694065
  14         O                -4.846887         14.708695
  15         O                -4.845348         14.706697
  16         O                -4.845335         14.708718
  17         O                -4.843851         14.706982
  18         O                -4.843267         14.709458
  19         O                -4.841770         14.709314
  20         O                -1.093770          2.489740
  21         O                -1.087572          2.564115
  22         O                -1.048402          2.568630
  23         O                -1.041831          2.734726
  24         O                -1.040774          2.753090
  25         O                -0.976038          2.852446
  26         O                -0.972524          2.886998
  27         O                -0.785338          1.637036
  28         O                -0.681499          1.826217
  29         O                -0.659406          2.150140
  30         O                -0.599207          1.937678
  31         O                -0.575172          1.907200
  32         O                -0.560905          2.075515
  33         O                -0.536183          1.809768
  34         O                -0.508413          1.590604
  35         O                -0.474628          2.327757
  36         O                -0.470354          2.358215
  37         O                -0.438388          2.112025
  38         O                -0.431016          1.915125
  39         O                -0.423867          2.153965
  40         O                -0.414065          1.800347
  41         O                -0.403450          1.805732
  42         O                -0.402921          1.783576
  43         O                -0.389664          1.884588
  44         O                -0.379356          2.237195
  45         O                -0.374334          2.252400
  46         O                -0.371528          2.213283
  47         O                -0.352211          2.178088
  48         O                -0.350030          2.295939
  49         O                -0.324653          2.301669
  50         O                -0.309790          2.290139
  51         O                -0.307993          2.158583
  52         O                -0.304947          2.319012
  53         O                -0.273299          2.363283
  54         V                 0.027420          1.932927
  55         V                 0.037900          1.832741
  56         V                 0.050990          1.820801
  57         V                 0.055831          1.983406
  58         V                 0.082134          1.646585
  59         V                 0.106475          1.800362
  60         V                 0.113485          1.820845
  61         V                 0.119546          1.472986
  62         V                 0.127590          2.233710
  63         V                 0.129991          2.130139
  64         V                 0.141408          2.112772
  65         V                 0.150297          2.247362
  66         V                 0.159584          1.520034
  67         V                 0.183048          1.611430
  68         V                 0.193710          1.825012
  69         V                 0.203944          1.731284
  70         V                 0.217604          2.560369
  71         V                 0.246826          2.232086
  72         V                 0.324212          1.952768
  73         V                 0.342497          1.914718
  74         V                 0.362060          2.108777
  75         V                 0.375043          2.344045
  76         V                 0.392207          2.537162
  77         V                 0.408767          2.010617
  78         V                 0.418507          2.431404
  79         V                 0.427784          1.763515
  80         V                 0.488682          2.073632
  81         V                 0.534635          2.616677
  82         V                 0.559154          2.182653
  83         V                 0.569649          2.284299
  84         V                 0.586843          2.273140
  85         V                 0.641039          2.405333
  86         V                 0.705490          2.319340
  87         V                 0.734887          2.714992
  88         V                 0.740325          2.644654
  89         V                 0.745471          2.478610
  90         V                 0.759972          2.534141
  91         V                 0.769006          2.417456
  92         V                 0.779543          2.511893
  93         V                 0.790338          2.791127
  94         V                 0.807436          2.568756
  95         V                 0.832507          2.268893
  96         V                 0.851081          2.564143
  97         V                 0.858076          2.634696
  98         V                 0.864555          2.708486
  99         V                 0.873550          2.786070
 100         V                 0.889888          2.795003
 101         V                 0.893768          2.736816
 102         V                 0.913955          2.891839
 103         V                 0.921123          2.727556
 104         V                 0.942200          2.908981
 105         V                 0.947182          3.138845
 106         V                 0.971625          3.139638
 107         V                 0.979235          3.171881
 108         V                 0.987949          2.909558
 109         V                 1.000772          3.221241
 110         V                 1.012472          3.258700
 111         V                 1.021886          3.312596
 112         V                 1.037847          2.954986
 113         V                 1.044051          3.302568
 114         V                 1.069392          3.195234
 115         V                 1.099744          3.636623
 116         V                 1.112410          3.637820
 117         V                 1.134870          3.505325
 118         V                 1.140071          3.716035
 119         V                 1.166655          3.789848
 120         V                 1.177663          3.365372
 121         V                 1.192929          3.122829
 122         V                 1.198463          3.033738
 123         V                 1.226792          3.330860
 124         V                 1.275710          3.078804
 125         V                 1.292139          2.965688
 126         V                 1.343536          2.675208
 127         V                 1.371803          2.575041
 128         V                 1.396933          2.791551
 129         V                 1.425212          2.672837
 130         V                 1.447431          2.709519
 131         V                 1.478587          2.750670
 132         V                 1.539036          2.711662
 133         V                 1.541193          2.663259
 134         V                 1.556681          2.672735
 135         V                 1.558001          2.669223
 136         V                 1.572977          2.729080
 137         V                 1.585049          2.725421
 138         V                 1.635274          2.728965
 139         V                 1.648293          2.827594
 140         V                 1.665996          2.857140
 141         V                 1.691135          2.878265
 142         V                 1.702297          2.905539
 143         V                 1.724704          2.910727
 144         V                 1.761086          2.861970
 145         V                 1.813410          2.978042
 146         V                 1.817957          2.965497
 147         V                 1.829285          3.063317
 148         V                 1.839366          3.031770
 149         V                 1.850255          2.952578
 150         V                 1.858981          3.400983
 151         V                 1.874028          3.162212
 152         V                 1.888110          3.283431
 153         V                 1.926697          3.259440
 154         V                 1.955459          3.197576
 155         V                 1.965442          3.273763
 156         V                 2.002847          3.506695
 157         V                 2.031046          3.488609
 158         V                 2.040962          2.957485
 159         V                 2.055958          3.345217
 160         V                 2.088712          3.293761
 161         V                 2.099607          3.391335
 162         V                 2.137352          3.458654
 163         V                 2.149696          3.378648
 164         V                 2.187707          3.510890
 165         V                 2.223766          3.548780
 166         V                 2.295779          3.680493
 167         V                 2.300566          3.675671
 168         V                 2.328260          3.707068
 169         V                 2.332158          3.711818
 170         V                 2.381218          3.683894
 171         V                 2.393254          3.659303
 172         V                 2.412405          3.711980
 173         V                 2.421925          3.909677
 174         V                 2.468297          3.911980
 175         V                 2.481297          4.241986
 176         V                 2.491845          4.098074
 177         V                 2.601530          3.602700
 178         V                 2.602316          3.643228
 179         V                 2.610503          4.073185
 180         V                 2.611455          4.038627
 181         V                 2.613390          3.704861
 182         V                 2.622842          4.149487
 183         V                 2.642331          3.675908
 184         V                 2.675732          3.886872
 185         V                 2.693511          3.879117
 186         V                 2.706947          3.813773
 187         V                 2.724999          4.032495
 188         V                 2.730315          4.003257
 189         V                 2.778493          4.335148
 190         V                 2.808571          4.460825
 191         V                 2.826421          4.774956
 192         V                 2.865301          3.949642
 193         V                 2.919401          4.128989
 194         V                 2.991144          4.566164
 195         V                 3.212101          4.979889
 196         V                 3.331620          6.482819
 197         V                 3.347688          6.422531
 198         V                 3.349374          6.374873
 199         V                 3.360222          6.277692
 200         V                 3.421778          5.369920
 201         V                 3.432753          5.300036
 202         V                 3.453982          6.376482
 203         V                 3.503975          9.659867
 204         V                 3.551589         10.254888
 205         V                 3.834399          9.569476
 206         V                 3.877786          9.628099
 207         V                 3.908253         10.040579
 208         V                 4.004501         10.259745
 209         V                 4.060826         10.238510
 210         V                 4.233874         10.542632
 211         V                 4.267480         10.592658
 212         V                 4.362928         10.629100
 213         V                 4.575442         10.371310
 Total kinetic energy from orbitals= 1.282442528421D+03

 Test job not archived.
 1\1\GINC-BATAGIN2\SP\RB3LYP\6-31G(d,p)\C2H8O7P2\ORISON\22-Jan-2021\0\\
 #t B3LYP/6-31G(d,p) scrf=(solvent=water) # Gfinput IOP(6/7=3) Pop=hirs
 hfeld Density Test # Units(Ang,Deg)\\w-etidronate-opt-g09.log\\0,1\C,0
 ,-0.00171,0.68714,-0.19864\C,0,-0.00329,1.99159,0.60876\H,0,-0.00153,1
 .79093,1.68222\H,0,0.87947,2.57956,0.35006\H,0,-0.89289,2.57309,0.3565
 1\O,0,0.00033,1.04131,-1.57479\H,0,0.05751,0.22467,-2.09625\P,0,1.5484
 ,-0.27069,0.19782\P,0,-1.55891,-0.25671,0.19906\O,0,1.58979,-1.24737,-
 1.08514\H,0,2.46196,-1.63979,-1.25035\O,0,2.76224,0.75085,-0.13124\H,0
 ,3.19615,1.06439,0.6777\O,0,-1.46472,-1.4036,-0.93067\H,0,-2.29615,-1.
 88381,-1.07259\O,0,-2.7498,0.68445,-0.36881\H,0,-3.28402,1.0514,0.3528
 2\O,0,-1.74432,-0.67801,1.61405\O,0,1.61488,-0.88788,1.54984\\Version=
 EM64L-G16RevA.03\State=1-A\HF=-1290.4710142\RMSD=3.885e-09\Dipole=0.12
 20979,0.7404332,-1.3868612\Quadrupole=11.3228304,-0.4059248,-10.916905
 6,0.3343389,0.520884,12.0825751\PG=C01 [X(C2H8O7P2)]\\@


 Ideas are like rabbits. You get a couple and learn
 how to handle them, and pretty soon you have a dozen.
                                    -- John Steinbeck
 Job cpu time:       0 days  0 hours  5 minutes 24.7 seconds.
 Elapsed time:       0 days  0 hours  0 minutes 40.8 seconds.
 File lengths (MBytes):  RWF=     77 Int=      0 D2E=      0 Chk=      4 Scr=      1
 Normal termination of Gaussian 16 at Fri Jan 22 02:47:50 2021.
