w-etidronate-opt-g09.log                                                
SP        RB3LYP                                                      6-31G(d,p)          
Number of atoms                            I               19
Info1-9                                    I   N=           9
          30          30           0           0           0         111
           1          18        -502
Full Title                                 C   N=           2
w-etidronate-opt-g09.log
Route                                      C   N=           8
#P B3LYP/6-31G(d,p) scrf=(solvent=water) # Pop=chelp # Gfinp
ut IOP(6/7=3) Density Test          
Charge                                     I                0
Multiplicity                               I                1
Number of electrons                        I              106
Number of alpha electrons                  I               53
Number of beta electrons                   I               53
Number of basis functions                  I              213
Number of independent functions            I              213
Number of point charges in /Mol/           I                0
Number of translation vectors              I                0
Atomic numbers                             I   N=          19
           6           6           1           1           1           8
           1          15          15           8           1           8
           1           8           1           8           1           8
           8
Nuclear charges                            R   N=          19
  6.00000000E+00  6.00000000E+00  1.00000000E+00  1.00000000E+00  1.00000000E+00
  8.00000000E+00  1.00000000E+00  1.50000000E+01  1.50000000E+01  8.00000000E+00
  1.00000000E+00  8.00000000E+00  1.00000000E+00  8.00000000E+00  1.00000000E+00
  8.00000000E+00  1.00000000E+00  8.00000000E+00  8.00000000E+00
Current cartesian coordinates              R   N=          57
 -3.23143167E-03  1.29850641E+00 -3.75375197E-01 -6.21719895E-03  3.76355965E+00
  1.15038968E+00 -2.89128097E-03  3.38436721E+00  3.17893508E+00  1.66195743E+00
  4.87466192E+00  6.61517527E-01 -1.68731756E+00  4.86243539E+00  6.73706261E-01
  6.23609621E-04  1.96779071E+00 -2.97592180E+00  1.08678149E-01  4.24564768E-01
 -3.96133839E+00  2.92605193E+00 -5.11529965E-01  3.73825622E-01 -2.94591295E+00
 -4.85111593E-01  3.76168882E-01  3.00426770E+00 -2.35718768E+00 -2.05061741E+00
  4.65243013E+00 -3.09875400E+00 -2.36281906E+00  5.21987709E+00  1.41890086E+00
 -2.48007657E-01  6.03984815E+00  2.01140559E+00  1.28066739E+00 -2.76791965E+00
 -2.65241959E+00 -1.75871141E+00 -4.33909464E+00 -3.55988497E+00 -2.02690134E+00
 -5.19636890E+00  1.29342305E+00 -6.96949892E-01 -6.20589839E+00  1.98685805E+00
  6.66733171E-01 -3.29628707E+00 -1.28125321E+00  3.05011245E+00  3.05168092E+00
 -1.67785003E+00  2.92877314E+00
Number of symbols in /Mol/                 I                0
Force Field                                I                0
Atom Types                                 C   N=          19
                                                            
                                                            
                                                            
                                                
Int Atom Types                             I   N=          19
           0           0           0           0           0           0
           0           0           0           0           0           0
           0           0           0           0           0           0
           0
MM charges                                 R   N=          19
  0.00000000E+00  0.00000000E+00  0.00000000E+00  0.00000000E+00  0.00000000E+00
  0.00000000E+00  0.00000000E+00  0.00000000E+00  0.00000000E+00  0.00000000E+00
  0.00000000E+00  0.00000000E+00  0.00000000E+00  0.00000000E+00  0.00000000E+00
  0.00000000E+00  0.00000000E+00  0.00000000E+00  0.00000000E+00
Integer atomic weights                     I   N=          19
          12          12           1           1           1          16
           1          31          31          16           1          16
           1          16           1          16           1          16
          16
Real atomic weights                        R   N=          19
  1.20000000E+01  1.20000000E+01  1.00782504E+00  1.00782504E+00  1.00782504E+00
  1.59949146E+01  1.00782504E+00  3.09737634E+01  3.09737634E+01  1.59949146E+01
  1.00782504E+00  1.59949146E+01  1.00782504E+00  1.59949146E+01  1.00782504E+00
  1.59949146E+01  1.00782504E+00  1.59949146E+01  1.59949146E+01
Atom fragment info                         I   N=          19
           0           0           0           0           0           0
           0           0           0           0           0           0
           0           0           0           0           0           0
           0
Atom residue num                           I   N=          19
           0           0           0           0           0           0
           0           0           0           0           0           0
           0           0           0           0           0           0
           0
Nuclear spins                              I   N=          19
           0           0           1           1           1           0
           1           1           1           0           1           0
           1           0           1           0           1           0
           0
Nuclear ZEff                               R   N=          19
 -3.60000000E+00 -3.60000000E+00 -1.00000000E+00 -1.00000000E+00 -1.00000000E+00
 -5.60000000E+00 -1.00000000E+00 -1.29400000E+01 -1.29400000E+01 -5.60000000E+00
 -1.00000000E+00 -5.60000000E+00 -1.00000000E+00 -5.60000000E+00 -1.00000000E+00
 -5.60000000E+00 -1.00000000E+00 -5.60000000E+00 -5.60000000E+00
Nuclear ZNuc                               R   N=          19
  6.00000000E+00  6.00000000E+00  1.00000000E+00  1.00000000E+00  1.00000000E+00
  8.00000000E+00  1.00000000E+00  1.50000000E+01  1.50000000E+01  8.00000000E+00
  1.00000000E+00  8.00000000E+00  1.00000000E+00  8.00000000E+00  1.00000000E+00
  8.00000000E+00  1.00000000E+00  8.00000000E+00  8.00000000E+00
Nuclear QMom                               R   N=          19
  0.00000000E+00  0.00000000E+00  0.00000000E+00  0.00000000E+00  0.00000000E+00
  0.00000000E+00  0.00000000E+00  0.00000000E+00  0.00000000E+00  0.00000000E+00
  0.00000000E+00  0.00000000E+00  0.00000000E+00  0.00000000E+00  0.00000000E+00
  0.00000000E+00  0.00000000E+00  0.00000000E+00  0.00000000E+00
Nuclear GFac                               R   N=          19
  0.00000000E+00  0.00000000E+00  2.79284600E+00  2.79284600E+00  2.79284600E+00
  0.00000000E+00  2.79284600E+00  1.13160000E+00  1.13160000E+00  0.00000000E+00
  2.79284600E+00  0.00000000E+00  2.79284600E+00  0.00000000E+00  2.79284600E+00
  0.00000000E+00  2.79284600E+00  0.00000000E+00  0.00000000E+00
MicOpt                                     I   N=          19
          -1          -1          -1          -1          -1          -1
          -1          -1          -1          -1          -1          -1
          -1          -1          -1          -1          -1          -1
          -1
Number of residues                         I                0
Number of secondary structures             I                0
SymInf integers                            I   N=          26
           1           1           1           1           1           0
           0           0           0           0           0           0
           0           0           0           0           0           0
           0           0           0           0           0           0
           0           0
RotTr to input orientation                 R   N=          12
  1.00000000E+00 -8.44827705E-07  0.00000000E+00  8.44827705E-07  1.00000000E+00
  0.00000000E+00  0.00000000E+00  0.00000000E+00  1.00000000E+00  8.91380247E-07
 -3.20896889E-06 -7.13104198E-07
Number of contracted shells                I               70
Number of primitive shells                 I              173
Pure/Cartesian d shells                    I                1
Pure/Cartesian f shells                    I                0
Highest angular momentum                   I                2
Largest degree of contraction              I                6
Shell types                                I   N=          70
           0          -1          -1           2           0          -1
          -1           2           0           0           1           0
           0           1           0           0           1           0
          -1          -1           2           0           0           1
           0          -1          -1          -1           2           0
          -1          -1          -1           2           0          -1
          -1           2           0           0           1           0
          -1          -1           2           0           0           1
           0          -1          -1           2           0           0
           1           0          -1          -1           2           0
           0           1           0          -1          -1           2
           0          -1          -1           2
Number of primitives per shell             I   N=          70
           6           3           1           1           6           3
           1           1           3           1           1           3
           1           1           3           1           1           6
           3           1           1           3           1           1
           6           6           3           1           1           6
           6           3           1           1           6           3
           1           1           3           1           1           6
           3           1           1           3           1           1
           6           3           1           1           3           1
           1           6           3           1           1           3
           1           1           6           3           1           1
           6           3           1           1
Shell to atom map                          I   N=          70
           1           1           1           1           2           2
           2           2           3           3           3           4
           4           4           5           5           5           6
           6           6           6           7           7           7
           8           8           8           8           8           9
           9           9           9           9          10          10
          10          10          11          11          11          12
          12          12          12          13          13          13
          14          14          14          14          15          15
          15          16          16          16          16          17
          17          17          18          18          18          18
          19          19          19          19
Primitive exponents                        R   N=         173
  3.04752488E+03  4.57369518E+02  1.03948685E+02  2.92101553E+01  9.28666296E+00
  3.16392696E+00  7.86827235E+00  1.88128854E+00  5.44249258E-01  1.68714478E-01
  8.00000000E-01  3.04752488E+03  4.57369518E+02  1.03948685E+02  2.92101553E+01
  9.28666296E+00  3.16392696E+00  7.86827235E+00  1.88128854E+00  5.44249258E-01
  1.68714478E-01  8.00000000E-01  1.87311370E+01  2.82539436E+00  6.40121692E-01
  1.61277759E-01  1.10000000E+00  1.87311370E+01  2.82539436E+00  6.40121692E-01
  1.61277759E-01  1.10000000E+00  1.87311370E+01  2.82539436E+00  6.40121692E-01
  1.61277759E-01  1.10000000E+00  5.48467166E+03  8.25234946E+02  1.88046958E+02
  5.29645000E+01  1.68975704E+01  5.79963534E+00  1.55396162E+01  3.59993359E+00
  1.01376175E+00  2.70005823E-01  8.00000000E-01  1.87311370E+01  2.82539436E+00
  6.40121692E-01  1.61277759E-01  1.10000000E+00  1.94133000E+04  2.90942000E+03
  6.61364000E+02  1.85759000E+02  5.91943000E+01  2.00310000E+01  3.39478000E+02
  8.10101000E+01  2.58780000E+01  9.45221000E+00  3.66566000E+00  1.46746000E+00
  2.15623000E+00  7.48997000E-01  2.83145000E-01  9.98317000E-02  5.50000000E-01
  1.94133000E+04  2.90942000E+03  6.61364000E+02  1.85759000E+02  5.91943000E+01
  2.00310000E+01  3.39478000E+02  8.10101000E+01  2.58780000E+01  9.45221000E+00
  3.66566000E+00  1.46746000E+00  2.15623000E+00  7.48997000E-01  2.83145000E-01
  9.98317000E-02  5.50000000E-01  5.48467166E+03  8.25234946E+02  1.88046958E+02
  5.29645000E+01  1.68975704E+01  5.79963534E+00  1.55396162E+01  3.59993359E+00
  1.01376175E+00  2.70005823E-01  8.00000000E-01  1.87311370E+01  2.82539436E+00
  6.40121692E-01  1.61277759E-01  1.10000000E+00  5.48467166E+03  8.25234946E+02
  1.88046958E+02  5.29645000E+01  1.68975704E+01  5.79963534E+00  1.55396162E+01
  3.59993359E+00  1.01376175E+00  2.70005823E-01  8.00000000E-01  1.87311370E+01
  2.82539436E+00  6.40121692E-01  1.61277759E-01  1.10000000E+00  5.48467166E+03
  8.25234946E+02  1.88046958E+02  5.29645000E+01  1.68975704E+01  5.79963534E+00
  1.55396162E+01  3.59993359E+00  1.01376175E+00  2.70005823E-01  8.00000000E-01
  1.87311370E+01  2.82539436E+00  6.40121692E-01  1.61277759E-01  1.10000000E+00
  5.48467166E+03  8.25234946E+02  1.88046958E+02  5.29645000E+01  1.68975704E+01
  5.79963534E+00  1.55396162E+01  3.59993359E+00  1.01376175E+00  2.70005823E-01
  8.00000000E-01  1.87311370E+01  2.82539436E+00  6.40121692E-01  1.61277759E-01
  1.10000000E+00  5.48467166E+03  8.25234946E+02  1.88046958E+02  5.29645000E+01
  1.68975704E+01  5.79963534E+00  1.55396162E+01  3.59993359E+00  1.01376175E+00
  2.70005823E-01  8.00000000E-01  5.48467166E+03  8.25234946E+02  1.88046958E+02
  5.29645000E+01  1.68975704E+01  5.79963534E+00  1.55396162E+01  3.59993359E+00
  1.01376175E+00  2.70005823E-01  8.00000000E-01
Contraction coefficients                   R   N=         173
  1.83473713E-03  1.40373228E-02  6.88426223E-02  2.32184443E-01  4.67941348E-01
  3.62311985E-01 -1.19332420E-01 -1.60854152E-01  1.14345644E+00  1.00000000E+00
  1.00000000E+00  1.83473713E-03  1.40373228E-02  6.88426223E-02  2.32184443E-01
  4.67941348E-01  3.62311985E-01 -1.19332420E-01 -1.60854152E-01  1.14345644E+00
  1.00000000E+00  1.00000000E+00  3.34946043E-02  2.34726953E-01  8.13757326E-01
  1.00000000E+00  1.00000000E+00  3.34946043E-02  2.34726953E-01  8.13757326E-01
  1.00000000E+00  1.00000000E+00  3.34946043E-02  2.34726953E-01  8.13757326E-01
  1.00000000E+00  1.00000000E+00  1.83107443E-03  1.39501722E-02  6.84450781E-02
  2.32714336E-01  4.70192898E-01  3.58520853E-01 -1.10777550E-01 -1.48026263E-01
  1.13076702E+00  1.00000000E+00  1.00000000E+00  3.34946043E-02  2.34726953E-01
  8.13757326E-01  1.00000000E+00  1.00000000E+00  1.85159892E-03  1.42061917E-02
  6.99994593E-02  2.40078860E-01  4.84761718E-01  3.35199805E-01 -2.78217010E-03
 -3.60499014E-02 -1.16631004E-01  9.68328036E-02  6.14418023E-01  4.03798015E-01
 -2.52924114E-01  3.28518447E-02  1.08125476E+00  1.00000000E+00  1.00000000E+00
  1.85159892E-03  1.42061917E-02  6.99994593E-02  2.40078860E-01  4.84761718E-01
  3.35199805E-01 -2.78217010E-03 -3.60499014E-02 -1.16631004E-01  9.68328036E-02
  6.14418023E-01  4.03798015E-01 -2.52924114E-01  3.28518447E-02  1.08125476E+00
  1.00000000E+00  1.00000000E+00  1.83107443E-03  1.39501722E-02  6.84450781E-02
  2.32714336E-01  4.70192898E-01  3.58520853E-01 -1.10777550E-01 -1.48026263E-01
  1.13076702E+00  1.00000000E+00  1.00000000E+00  3.34946043E-02  2.34726953E-01
  8.13757326E-01  1.00000000E+00  1.00000000E+00  1.83107443E-03  1.39501722E-02
  6.84450781E-02  2.32714336E-01  4.70192898E-01  3.58520853E-01 -1.10777550E-01
 -1.48026263E-01  1.13076702E+00  1.00000000E+00  1.00000000E+00  3.34946043E-02
  2.34726953E-01  8.13757326E-01  1.00000000E+00  1.00000000E+00  1.83107443E-03
  1.39501722E-02  6.84450781E-02  2.32714336E-01  4.70192898E-01  3.58520853E-01
 -1.10777550E-01 -1.48026263E-01  1.13076702E+00  1.00000000E+00  1.00000000E+00
  3.34946043E-02  2.34726953E-01  8.13757326E-01  1.00000000E+00  1.00000000E+00
  1.83107443E-03  1.39501722E-02  6.84450781E-02  2.32714336E-01  4.70192898E-01
  3.58520853E-01 -1.10777550E-01 -1.48026263E-01  1.13076702E+00  1.00000000E+00
  1.00000000E+00  3.34946043E-02  2.34726953E-01  8.13757326E-01  1.00000000E+00
  1.00000000E+00  1.83107443E-03  1.39501722E-02  6.84450781E-02  2.32714336E-01
  4.70192898E-01  3.58520853E-01 -1.10777550E-01 -1.48026263E-01  1.13076702E+00
  1.00000000E+00  1.00000000E+00  1.83107443E-03  1.39501722E-02  6.84450781E-02
  2.32714336E-01  4.70192898E-01  3.58520853E-01 -1.10777550E-01 -1.48026263E-01
  1.13076702E+00  1.00000000E+00  1.00000000E+00
P(S=P) Contraction coefficients            R   N=         173
  0.00000000E+00  0.00000000E+00  0.00000000E+00  0.00000000E+00  0.00000000E+00
  0.00000000E+00  6.89990666E-02  3.16423961E-01  7.44308291E-01  1.00000000E+00
  0.00000000E+00  0.00000000E+00  0.00000000E+00  0.00000000E+00  0.00000000E+00
  0.00000000E+00  0.00000000E+00  6.89990666E-02  3.16423961E-01  7.44308291E-01
  1.00000000E+00  0.00000000E+00  0.00000000E+00  0.00000000E+00  0.00000000E+00
  0.00000000E+00  0.00000000E+00  0.00000000E+00  0.00000000E+00  0.00000000E+00
  0.00000000E+00  0.00000000E+00  0.00000000E+00  0.00000000E+00  0.00000000E+00
  0.00000000E+00  0.00000000E+00  0.00000000E+00  0.00000000E+00  0.00000000E+00
  0.00000000E+00  0.00000000E+00  0.00000000E+00  7.08742682E-02  3.39752839E-01
  7.27158577E-01  1.00000000E+00  0.00000000E+00  0.00000000E+00  0.00000000E+00
  0.00000000E+00  0.00000000E+00  0.00000000E+00  0.00000000E+00  0.00000000E+00
  0.00000000E+00  0.00000000E+00  0.00000000E+00  0.00000000E+00  4.56461619E-03
  3.36935719E-02  1.39754883E-01  3.39361717E-01  4.50920624E-01  2.38585801E-01
 -1.77653127E-02  2.74058196E-01  7.85421563E-01  1.00000000E+00  0.00000000E+00
  0.00000000E+00  0.00000000E+00  0.00000000E+00  0.00000000E+00  0.00000000E+00
  0.00000000E+00  4.56461619E-03  3.36935719E-02  1.39754883E-01  3.39361717E-01
  4.50920624E-01  2.38585801E-01 -1.77653127E-02  2.74058196E-01  7.85421563E-01
  1.00000000E+00  0.00000000E+00  0.00000000E+00  0.00000000E+00  0.00000000E+00
  0.00000000E+00  0.00000000E+00  0.00000000E+00  7.08742682E-02  3.39752839E-01
  7.27158577E-01  1.00000000E+00  0.00000000E+00  0.00000000E+00  0.00000000E+00
  0.00000000E+00  0.00000000E+00  0.00000000E+00  0.00000000E+00  0.00000000E+00
  0.00000000E+00  0.00000000E+00  0.00000000E+00  0.00000000E+00  7.08742682E-02
  3.39752839E-01  7.27158577E-01  1.00000000E+00  0.00000000E+00  0.00000000E+00
  0.00000000E+00  0.00000000E+00  0.00000000E+00  0.00000000E+00  0.00000000E+00
  0.00000000E+00  0.00000000E+00  0.00000000E+00  0.00000000E+00  0.00000000E+00
  7.08742682E-02  3.39752839E-01  7.27158577E-01  1.00000000E+00  0.00000000E+00
  0.00000000E+00  0.00000000E+00  0.00000000E+00  0.00000000E+00  0.00000000E+00
  0.00000000E+00  0.00000000E+00  0.00000000E+00  0.00000000E+00  0.00000000E+00
  0.00000000E+00  7.08742682E-02  3.39752839E-01  7.27158577E-01  1.00000000E+00
  0.00000000E+00  0.00000000E+00  0.00000000E+00  0.00000000E+00  0.00000000E+00
  0.00000000E+00  0.00000000E+00  0.00000000E+00  0.00000000E+00  0.00000000E+00
  0.00000000E+00  0.00000000E+00  7.08742682E-02  3.39752839E-01  7.27158577E-01
  1.00000000E+00  0.00000000E+00  0.00000000E+00  0.00000000E+00  0.00000000E+00
  0.00000000E+00  0.00000000E+00  0.00000000E+00  7.08742682E-02  3.39752839E-01
  7.27158577E-01  1.00000000E+00  0.00000000E+00
Coordinates of each shell                  R   N=         210
 -3.23342007E-03  1.29850962E+00 -3.75374484E-01 -3.23342007E-03  1.29850962E+00
 -3.75374484E-01 -3.23342007E-03  1.29850962E+00 -3.75374484E-01 -3.23342007E-03
  1.29850962E+00 -3.75374484E-01 -6.22126989E-03  3.76356286E+00  1.15039039E+00
 -6.22126989E-03  3.76356286E+00  1.15039039E+00 -6.22126989E-03  3.76356286E+00
  1.15039039E+00 -6.22126989E-03  3.76356286E+00  1.15039039E+00 -2.89503156E-03
  3.38437041E+00  3.17893579E+00 -2.89503156E-03  3.38437041E+00  3.17893579E+00
 -2.89503156E-03  3.38437041E+00  3.17893579E+00  1.66195243E+00  4.87466653E+00
  6.61518240E-01  1.66195243E+00  4.87466653E+00  6.61518240E-01  1.66195243E+00
  4.87466653E+00  6.61518240E-01 -1.68732256E+00  4.86243718E+00  6.73706974E-01
 -1.68732256E+00  4.86243718E+00  6.73706974E-01 -1.68732256E+00  4.86243718E+00
  6.73706974E-01  6.21055794E-04  1.96779392E+00 -2.97592109E+00  6.21055794E-04
  1.96779392E+00 -2.97592109E+00  6.21055794E-04  1.96779392E+00 -2.97592109E+00
  6.21055794E-04  1.96779392E+00 -2.97592109E+00  1.08676899E-01  4.24568069E-01
 -3.96133768E+00  1.08676899E-01  4.24568069E-01 -3.96133768E+00  1.08676899E-01
  4.24568069E-01 -3.96133768E+00  2.92605147E+00 -5.11524284E-01  3.73826335E-01
  2.92605147E+00 -5.11524284E-01  3.73826335E-01  2.92605147E+00 -5.11524284E-01
  3.73826335E-01  2.92605147E+00 -5.11524284E-01  3.73826335E-01  2.92605147E+00
 -5.11524284E-01  3.73826335E-01 -2.94591343E+00 -4.85110873E-01  3.76169595E-01
 -2.94591343E+00 -4.85110873E-01  3.76169595E-01 -2.94591343E+00 -4.85110873E-01
  3.76169595E-01 -2.94591343E+00 -4.85110873E-01  3.76169595E-01 -2.94591343E+00
 -4.85110873E-01  3.76169595E-01  3.00426880E+00 -2.35718193E+00 -2.05061669E+00
  3.00426880E+00 -2.35718193E+00 -2.05061669E+00  3.00426880E+00 -2.35718193E+00
 -2.05061669E+00  3.00426880E+00 -2.35718193E+00 -2.05061669E+00  4.65243186E+00
 -3.09874686E+00 -2.36281835E+00  4.65243186E+00 -3.09874686E+00 -2.36281835E+00
  4.65243186E+00 -3.09874686E+00 -2.36281835E+00  5.21987500E+00  1.41890848E+00
 -2.48006943E-01  5.21987500E+00  1.41890848E+00 -2.48006943E-01  5.21987500E+00
  1.41890848E+00 -2.48006943E-01  5.21987500E+00  1.41890848E+00 -2.48006943E-01
  6.03984556E+00  2.01141390E+00  1.28066811E+00  6.03984556E+00  2.01141390E+00
  1.28066811E+00  6.03984556E+00  2.01141390E+00  1.28066811E+00 -2.76791830E+00
 -2.65241872E+00 -1.75871070E+00 -2.76791830E+00 -2.65241872E+00 -1.75871070E+00
 -2.76791830E+00 -2.65241872E+00 -1.75871070E+00 -2.76791830E+00 -2.65241872E+00
 -1.75871070E+00 -4.33909252E+00 -3.55988543E+00 -2.02690063E+00 -4.33909252E+00
 -3.55988543E+00 -2.02690063E+00 -4.33909252E+00 -3.55988543E+00 -2.02690063E+00
 -5.19637088E+00  1.29342186E+00 -6.96949179E-01 -5.19637088E+00  1.29342186E+00
 -6.96949179E-01 -5.19637088E+00  1.29342186E+00 -6.96949179E-01 -5.19637088E+00
  1.29342186E+00 -6.96949179E-01 -6.20590096E+00  1.98685601E+00  6.66733884E-01
 -6.20590096E+00  1.98685601E+00  6.66733884E-01 -6.20590096E+00  1.98685601E+00
  6.66733884E-01 -3.29628688E+00 -1.28125279E+00  3.05011316E+00 -3.29628688E+00
 -1.28125279E+00  3.05011316E+00 -3.29628688E+00 -1.28125279E+00  3.05011316E+00
 -3.29628688E+00 -1.28125279E+00  3.05011316E+00  3.05168145E+00 -1.67784424E+00
  2.92877385E+00  3.05168145E+00 -1.67784424E+00  2.92877385E+00  3.05168145E+00
 -1.67784424E+00  2.92877385E+00  3.05168145E+00 -1.67784424E+00  2.92877385E+00
Num ILSW                                   I              100
ILSW                                       I   N=         100
           0           1           0           0           2           0
           0           0           0           0         402          -1
           5           0           0           0           0           0
           0           0           0           0           0           0
           1           0           0           0           0           0
           0           0      100000           0          -1           0
           0           0           0           0           0           0
           0           0           0           1           0           0
           0 -2000000000           1           0           0           0
           0           0           4          52           0           0
           0           0           5           0           0           0
           0           0           0          19           0           1
           0           0           0           0           0           0
           0           0           0           0           0           0
           0           0           0           0           0           0
           0           0           0           0           0           0
           0           0           0           0
Num RLSW                                   I               52
RLSW                                       R   N=          52
  8.00000000E-01  7.20000000E-01  1.00000000E+00  8.10000000E-01  2.00000000E-01
  0.00000000E+00  0.00000000E+00  1.00000000E+00  0.00000000E+00  0.00000000E+00
  0.00000000E+00  0.00000000E+00  1.00000000E+00  0.00000000E+00  0.00000000E+00
  0.00000000E+00  0.00000000E+00  1.00000000E+00  0.00000000E+00  0.00000000E+00
  0.00000000E+00  0.00000000E+00  1.00000000E+00  0.00000000E+00  0.00000000E+00
  0.00000000E+00  0.00000000E+00  1.00000000E+00  0.00000000E+00  0.00000000E+00
  0.00000000E+00  0.00000000E+00  1.00000000E+00  0.00000000E+00  0.00000000E+00
  0.00000000E+00  0.00000000E+00  0.00000000E+00  1.00000000E+00  1.00000000E+00
  0.00000000E+00  1.00000000E+00  0.00000000E+00  0.00000000E+00  0.00000000E+00
  0.00000000E+00  0.00000000E+00  0.00000000E+00  0.00000000E+00  0.00000000E+00
  0.00000000E+00  0.00000000E+00
MxBond                                     I                4
NBond                                      I   N=          19
           4           4           1           1           1           2
           1           4           4           2           1           2
           1           2           1           2           1           1
           1
IBond                                      I   N=          76
           2           6           8           9           1           3
           4           5           2           0           0           0
           2           0           0           0           2           0
           0           0           1           7           0           0
           6           0           0           0           1          10
          12          19           1          14          16          18
           8          11           0           0          10           0
           0           0           8          13           0           0
          12           0           0           0           9          15
           0           0          14           0           0           0
           9          17           0           0          16           0
           0           0           9           0           0           0
           8           0           0           0
RBond                                      R   N=          76
  1.00000000E+00  1.00000000E+00  1.00000000E+00  1.00000000E+00  1.00000000E+00
  1.00000000E+00  1.00000000E+00  1.00000000E+00  1.00000000E+00  0.00000000E+00
  0.00000000E+00  0.00000000E+00  1.00000000E+00  0.00000000E+00  0.00000000E+00
  0.00000000E+00  1.00000000E+00  0.00000000E+00  0.00000000E+00  0.00000000E+00
  1.00000000E+00  1.00000000E+00  0.00000000E+00  0.00000000E+00  1.00000000E+00
  0.00000000E+00  0.00000000E+00  0.00000000E+00  1.00000000E+00  1.00000000E+00
  1.00000000E+00  2.00000000E+00  1.00000000E+00  1.00000000E+00  1.00000000E+00
  2.00000000E+00  1.00000000E+00  1.00000000E+00  0.00000000E+00  0.00000000E+00
  1.00000000E+00  0.00000000E+00  0.00000000E+00  0.00000000E+00  1.00000000E+00
  1.00000000E+00  0.00000000E+00  0.00000000E+00  1.00000000E+00  0.00000000E+00
  0.00000000E+00  0.00000000E+00  1.00000000E+00  1.00000000E+00  0.00000000E+00
  0.00000000E+00  1.00000000E+00  0.00000000E+00  0.00000000E+00  0.00000000E+00
  1.00000000E+00  1.00000000E+00  0.00000000E+00  0.00000000E+00  1.00000000E+00
  0.00000000E+00  0.00000000E+00  0.00000000E+00  2.00000000E+00  0.00000000E+00
  0.00000000E+00  0.00000000E+00  2.00000000E+00  0.00000000E+00  0.00000000E+00
  0.00000000E+00
Virial Ratio                               R      2.006260308425179E+00
SCF Energy                                 R     -1.290471014186978E+03
Total Energy                               R     -1.290471014186978E+03
RMS Density                                R      3.884942056904520E-09
Job Status                                 I                1
Nuclear derivative order                   I                0
PCM-NSphere                                I               19
PCM-NGenSphere                             I               19
PCM-NOrd                                   I   N=          19
           1           2           3           4           5           6
           7           8           9          10          11          12
          13          14          15          16          17          18
          19
PCM-SphereRadii                            R   N=          19
  4.00253442E+00  4.00253442E+00  2.99956228E+00  2.99956228E+00  2.99956228E+00
  3.63772279E+00  2.99956228E+00  4.31018183E+00  4.31018183E+00  3.63772279E+00
  2.99956228E+00  3.63772279E+00  2.99956228E+00  3.63772279E+00  2.99956228E+00
  3.63772279E+00  2.99956228E+00  3.63772279E+00  3.63772279E+00
PCM-SphereLoc                              R   N=          57
 -3.23143167E-03  1.29850641E+00 -3.75375197E-01 -6.21719895E-03  3.76355965E+00
  1.15038968E+00 -2.89128097E-03  3.38436721E+00  3.17893508E+00  1.66195743E+00
  4.87466192E+00  6.61517527E-01 -1.68731756E+00  4.86243539E+00  6.73706261E-01
  6.23609621E-04  1.96779071E+00 -2.97592180E+00  1.08678149E-01  4.24564768E-01
 -3.96133839E+00  2.92605193E+00 -5.11529965E-01  3.73825622E-01 -2.94591295E+00
 -4.85111593E-01  3.76168882E-01  3.00426770E+00 -2.35718768E+00 -2.05061741E+00
  4.65243013E+00 -3.09875400E+00 -2.36281906E+00  5.21987709E+00  1.41890086E+00