 Entering Gaussian System, Link 0=g16
 Input=w-etidronate_cation_scf_g09.com
 Output=w-etidronate_cation_scf_g09.log
 Initial command:
 /usr/local//g16/l1.exe "/home/orison/scrgauss/Gau-23165.inp" -scrdir="/home/orison/scrgauss/"
 Entering Link 1 = /usr/local//g16/l1.exe PID=     23167.
  
 Copyright (c) 1988,1990,1992,1993,1995,1998,2003,2009,2016,
            Gaussian, Inc.  All Rights Reserved.
  
 This is part of the Gaussian(R) 16 program.  It is based on
 the Gaussian(R) 09 system (copyright 2009, Gaussian, Inc.),
 the Gaussian(R) 03 system (copyright 2003, Gaussian, Inc.),
 the Gaussian(R) 98 system (copyright 1998, Gaussian, Inc.),
 the Gaussian(R) 94 system (copyright 1995, Gaussian, Inc.),
 the Gaussian 92(TM) system (copyright 1992, Gaussian, Inc.),
 the Gaussian 90(TM) system (copyright 1990, Gaussian, Inc.),
 the Gaussian 88(TM) system (copyright 1988, Gaussian, Inc.),
 the Gaussian 86(TM) system (copyright 1986, Carnegie Mellon
 University), and the Gaussian 82(TM) system (copyright 1983,
 Carnegie Mellon University). Gaussian is a federally registered
 trademark of Gaussian, Inc.
  
 This software contains proprietary and confidential information,
 including trade secrets, belonging to Gaussian, Inc.
  
 This software is provided under written license and may be
 used, copied, transmitted, or stored only in accord with that
 written license.
  
 The following legend is applicable only to US Government
 contracts under FAR:
  
                    RESTRICTED RIGHTS LEGEND
  
 Use, reproduction and disclosure by the US Government is
 subject to restrictions as set forth in subparagraphs (a)
 and (c) of the Commercial Computer Software - Restricted
 Rights clause in FAR 52.227-19.
  
 Gaussian, Inc.
 340 Quinnipiac St., Bldg. 40, Wallingford CT 06492
  
  
 ---------------------------------------------------------------
 Warning -- This program may not be used in any manner that
 competes with the business of Gaussian, Inc. or will provide
 assistance to any competitor of Gaussian, Inc.  The licensee
 of this program is prohibited from giving any competitor of
 Gaussian, Inc. access to this program.  By using this program,
 the user acknowledges that Gaussian, Inc. is engaged in the
 business of creating and licensing software in the field of
 computational chemistry and represents and warrants to the
 licensee that it is not a competitor of Gaussian, Inc. and that
 it will not use this program in any manner prohibited above.
 ---------------------------------------------------------------
  

 Cite this work as:
 Gaussian 16, Revision A.03,
 M. J. Frisch, G. W. Trucks, H. B. Schlegel, G. E. Scuseria, 
 M. A. Robb, J. R. Cheeseman, G. Scalmani, V. Barone, 
 G. A. Petersson, H. Nakatsuji, X. Li, M. Caricato, A. V. Marenich, 
 J. Bloino, B. G. Janesko, R. Gomperts, B. Mennucci, H. P. Hratchian, 
 J. V. Ortiz, A. F. Izmaylov, J. L. Sonnenberg, D. Williams-Young, 
 F. Ding, F. Lipparini, F. Egidi, J. Goings, B. Peng, A. Petrone, 
 T. Henderson, D. Ranasinghe, V. G. Zakrzewski, J. Gao, N. Rega, 
 G. Zheng, W. Liang, M. Hada, M. Ehara, K. Toyota, R. Fukuda, 
 J. Hasegawa, M. Ishida, T. Nakajima, Y. Honda, O. Kitao, H. Nakai, 
 T. Vreven, K. Throssell, J. A. Montgomery, Jr., J. E. Peralta, 
 F. Ogliaro, M. J. Bearpark, J. J. Heyd, E. N. Brothers, K. N. Kudin, 
 V. N. Staroverov, T. A. Keith, R. Kobayashi, J. Normand, 
 K. Raghavachari, A. P. Rendell, J. C. Burant, S. S. Iyengar, 
 J. Tomasi, M. Cossi, J. M. Millam, M. Klene, C. Adamo, R. Cammi, 
 J. W. Ochterski, R. L. Martin, K. Morokuma, O. Farkas, 
 J. B. Foresman, and D. J. Fox, Gaussian, Inc., Wallingford CT, 2016.
 
 ******************************************
 Gaussian 16:  EM64L-G16RevA.03 25-Dec-2016
                22-Jan-2021 
 ******************************************
 %nproc=8
 Will use up to    8 processors via shared memory.
 %Mem=4GB
 ----------------------------------------------------------------------
 #t B3LYP/6-31G(d,p) scrf=(solvent=water) # Gfinput IOP(6/7=3) Pop=hirs
 hfeld Density Test # Units(Ang,Deg)
 ----------------------------------------------------------------------
 ------------------------
 w-etidronate-opt-g09.log
 ------------------------
 Symbolic Z-matrix:
 Charge =  1 Multiplicity = 2
 C                    -0.00171   0.68714  -0.19864 
 C                    -0.00329   1.99159   0.60876 
 H                    -0.00153   1.79093   1.68222 
 H                     0.87947   2.57956   0.35006 
 H                    -0.89289   2.57309   0.35651 
 O                     0.00033   1.04131  -1.57479 
 H                     0.05751   0.22467  -2.09625 
 P                     1.5484   -0.27069   0.19782 
 P                    -1.55891  -0.25671   0.19906 
 O                     1.58979  -1.24737  -1.08514 
 H                     2.46196  -1.63979  -1.25035 
 O                     2.76224   0.75085  -0.13124 
 H                     3.19615   1.06439   0.6777 
 O                    -1.46472  -1.4036   -0.93067 
 H                    -2.29615  -1.88381  -1.07259 
 O                    -2.7498    0.68445  -0.36881 
 H                    -3.28402   1.0514    0.35282 
 O                    -1.74432  -0.67801   1.61405 
 O                     1.61488  -0.88788   1.54984 
 
                    Distance matrix (angstroms):
                    1          2          3          4          5
     1  C    0.000000
     2  C    1.534108   0.000000
     3  H    2.180822   1.092055   0.000000
     4  H    2.158426   1.091742   1.781221   0.000000
     5  H    2.158518   1.092319   1.778708   1.772384   0.000000
     6  O    1.420996   2.381373   3.342162   2.616132   2.621853
     7  H    1.954049   3.231529   4.090659   3.493645   3.526240
     8  P    1.864795   2.773901   2.975904   2.931650   3.751288
     9  P    1.863837   2.764536   2.969516   3.743384   2.911381
    10  O    2.657270   3.987238   4.407023   4.148463   4.778909
    11  H    3.548291   4.766620   5.141847   4.782102   5.620087
    12  O    2.765506   3.120127   3.465376   2.668455   4.113202
    13  H    3.337154   3.331797   3.429589   2.787489   4.370307
    14  O    2.654705   4.004115   4.378715   4.795942   4.218754
    15  H    3.555000   4.806544   5.134002   5.659520   4.886248
    16  O    2.753355   3.194930   3.603333   4.156900   2.746118
    17  H    3.348186   3.422375   3.617865   4.435079   2.834265
    18  O    2.861148   3.341939   3.022851   4.369635   3.588313
    19  O    2.855037   3.434451   3.131506   3.742117   4.437484
                    6          7          8          9         10
     6  O    0.000000
     7  H    0.970614   0.000000
     8  P    2.694441   2.780448   0.000000
     9  P    2.694927   2.848331   3.107342   0.000000
    10  O    2.829169   2.353110   1.612949   3.541876   0.000000
    11  H    3.654200   3.158028   2.192310   4.492337   0.970551
    12  O    3.129912   3.384331   1.620257   4.449338   2.505483
    13  H    3.909924   4.272118   2.174351   4.958326   3.321480
    14  O    2.922131   2.515358   3.411139   1.612612   3.062401
    15  H    3.752646   3.321639   4.358516   2.192731   3.937733
    16  O    3.024062   3.328128   4.439356   1.620641   4.803863
    17  H    3.808246   4.224600   5.012408   2.170437   5.577284
    18  O    4.021015   4.222292   3.607440   1.487974   4.327365
    19  O    4.011466   4.117905   1.487717   3.506555   2.659508
                   11         12         13         14         15
    11  H    0.000000
    12  O    2.656640   0.000000
    13  H    3.401323   0.970036   0.000000
    14  O    3.946745   4.811230   5.513759   0.000000
    15  H    4.767678   5.780561   6.474624   0.970577   0.000000
    16  O    5.774223   5.517557   6.049286   2.515367   2.701308
    17  H    6.544383   6.073047   6.488322   3.314246   3.409272
    18  O    5.179054   5.039520   5.321743   2.660875   2.996082
    19  O    3.020592   2.613025   2.659399   3.987836   4.813021
                   16         17         18         19
    16  O    0.000000
    17  H    0.969945   0.000000
    18  O    2.607493   2.636709   0.000000
    19  O    5.020346   5.403044   3.366362   0.000000
 Framework group  C1[X(C2H8O7P2)]
 Deg. of freedom    51
                         Standard orientation:                         
 ---------------------------------------------------------------------
 Center     Atomic      Atomic             Coordinates (Angstroms)
 Number     Number       Type             X           Y           Z
 ---------------------------------------------------------------------
      1          6           0       -0.001711    0.687142   -0.198640
      2          6           0       -0.003292    1.991592    0.608760
      3          1           0       -0.001532    1.790932    1.682220
      4          1           0        0.879467    2.579562    0.350060
      5          1           0       -0.892893    2.573091    0.356510
      6          8           0        0.000329    1.041312   -1.574790
      7          1           0        0.057509    0.224672   -2.096250
      8         15           0        1.548400   -0.270687    0.197820
      9         15           0       -1.558910   -0.256710    0.199060
     10          8           0        1.589791   -1.247367   -1.085140
     11          1           0        2.461961   -1.639786   -1.250350
     12          8           0        2.762239    0.750854   -0.131240
     13          1           0        3.196149    1.064394    0.677700
     14          8           0       -1.464719   -1.403600   -0.930670
     15          1           0       -2.296149   -1.883810   -1.072590
     16          8           0       -2.749801    0.684449   -0.368810
     17          1           0       -3.284021    1.051399    0.352820
     18          8           0       -1.744320   -0.678010    1.614050
     19          8           0        1.614880   -0.887877    1.549840
 ---------------------------------------------------------------------
 Rotational constants (GHZ):           1.3811679           0.6640302           0.6409754
 AO basis set in the form of general basis input (Overlap normalization):
      1 0
 S   6 1.00       0.000000000000
      0.3047524880D+04  0.1834737132D-02
      0.4573695180D+03  0.1403732281D-01
      0.1039486850D+03  0.6884262226D-01
      0.2921015530D+02  0.2321844432D+00
      0.9286662960D+01  0.4679413484D+00
      0.3163926960D+01  0.3623119853D+00
 SP   3 1.00       0.000000000000
      0.7868272350D+01 -0.1193324198D+00  0.6899906659D-01
      0.1881288540D+01 -0.1608541517D+00  0.3164239610D+00
      0.5442492580D+00  0.1143456438D+01  0.7443082909D+00
 SP   1 1.00       0.000000000000
      0.1687144782D+00  0.1000000000D+01  0.1000000000D+01
 D   1 1.00       0.000000000000
      0.8000000000D+00  0.1000000000D+01
 ****
      2 0
 S   6 1.00       0.000000000000
      0.3047524880D+04  0.1834737132D-02
      0.4573695180D+03  0.1403732281D-01
      0.1039486850D+03  0.6884262226D-01
      0.2921015530D+02  0.2321844432D+00
      0.9286662960D+01  0.4679413484D+00
      0.3163926960D+01  0.3623119853D+00
 SP   3 1.00       0.000000000000
      0.7868272350D+01 -0.1193324198D+00  0.6899906659D-01
      0.1881288540D+01 -0.1608541517D+00  0.3164239610D+00
      0.5442492580D+00  0.1143456438D+01  0.7443082909D+00
 SP   1 1.00       0.000000000000
      0.1687144782D+00  0.1000000000D+01  0.1000000000D+01
 D   1 1.00       0.000000000000
      0.8000000000D+00  0.1000000000D+01
 ****
      3 0
 S   3 1.00       0.000000000000
      0.1873113696D+02  0.3349460434D-01
      0.2825394365D+01  0.2347269535D+00
      0.6401216923D+00  0.8137573261D+00
 S   1 1.00       0.000000000000
      0.1612777588D+00  0.1000000000D+01
 P   1 1.00       0.000000000000
      0.1100000000D+01  0.1000000000D+01
 ****
      4 0
 S   3 1.00       0.000000000000
      0.1873113696D+02  0.3349460434D-01
      0.2825394365D+01  0.2347269535D+00
      0.6401216923D+00  0.8137573261D+00
 S   1 1.00       0.000000000000
      0.1612777588D+00  0.1000000000D+01
 P   1 1.00       0.000000000000
      0.1100000000D+01  0.1000000000D+01
 ****
      5 0
 S   3 1.00       0.000000000000
      0.1873113696D+02  0.3349460434D-01
      0.2825394365D+01  0.2347269535D+00
      0.6401216923D+00  0.8137573261D+00
 S   1 1.00       0.000000000000
      0.1612777588D+00  0.1000000000D+01
 P   1 1.00       0.000000000000
      0.1100000000D+01  0.1000000000D+01
 ****
      6 0
 S   6 1.00       0.000000000000
      0.5484671660D+04  0.1831074430D-02
      0.8252349460D+03  0.1395017220D-01
      0.1880469580D+03  0.6844507810D-01
      0.5296450000D+02  0.2327143360D+00
      0.1689757040D+02  0.4701928980D+00
      0.5799635340D+01  0.3585208530D+00
 SP   3 1.00       0.000000000000
      0.1553961625D+02 -0.1107775495D+00  0.7087426823D-01
      0.3599933586D+01 -0.1480262627D+00  0.3397528391D+00
      0.1013761750D+01  0.1130767015D+01  0.7271585773D+00
 SP   1 1.00       0.000000000000
      0.2700058226D+00  0.1000000000D+01  0.1000000000D+01
 D   1 1.00       0.000000000000
      0.8000000000D+00  0.1000000000D+01
 ****
      7 0
 S   3 1.00       0.000000000000
      0.1873113696D+02  0.3349460434D-01
      0.2825394365D+01  0.2347269535D+00
      0.6401216923D+00  0.8137573261D+00
 S   1 1.00       0.000000000000
      0.1612777588D+00  0.1000000000D+01
 P   1 1.00       0.000000000000
      0.1100000000D+01  0.1000000000D+01
 ****
      8 0
 S   6 1.00       0.000000000000
      0.1941330000D+05  0.1851598923D-02
      0.2909420000D+04  0.1420619174D-01
      0.6613640000D+03  0.6999945928D-01
      0.1857590000D+03  0.2400788603D+00
      0.5919430000D+02  0.4847617180D+00
      0.2003100000D+02  0.3351998050D+00
 SP   6 1.00       0.000000000000
      0.3394780000D+03 -0.2782170105D-02  0.4564616191D-02
      0.8101010000D+02 -0.3604990135D-01  0.3369357188D-01
      0.2587800000D+02 -0.1166310044D+00  0.1397548834D+00
      0.9452210000D+01  0.9683280364D-01  0.3393617168D+00
      0.3665660000D+01  0.6144180231D+00  0.4509206237D+00
      0.1467460000D+01  0.4037980152D+00  0.2385858009D+00
 SP   3 1.00       0.000000000000
      0.2156230000D+01 -0.2529241139D+00 -0.1776531273D-01
      0.7489970000D+00  0.3285184468D-01  0.2740581964D+00
      0.2831450000D+00  0.1081254762D+01  0.7854215630D+00
 SP   1 1.00       0.000000000000
      0.9983170000D-01  0.1000000000D+01  0.1000000000D+01
 D   1 1.00       0.000000000000
      0.5500000000D+00  0.1000000000D+01
 ****
      9 0
 S   6 1.00       0.000000000000
      0.1941330000D+05  0.1851598923D-02
      0.2909420000D+04  0.1420619174D-01
      0.6613640000D+03  0.6999945928D-01
      0.1857590000D+03  0.2400788603D+00
      0.5919430000D+02  0.4847617180D+00
      0.2003100000D+02  0.3351998050D+00
 SP   6 1.00       0.000000000000
      0.3394780000D+03 -0.2782170105D-02  0.4564616191D-02
      0.8101010000D+02 -0.3604990135D-01  0.3369357188D-01
      0.2587800000D+02 -0.1166310044D+00  0.1397548834D+00
      0.9452210000D+01  0.9683280364D-01  0.3393617168D+00
      0.3665660000D+01  0.6144180231D+00  0.4509206237D+00
      0.1467460000D+01  0.4037980152D+00  0.2385858009D+00
 SP   3 1.00       0.000000000000
      0.2156230000D+01 -0.2529241139D+00 -0.1776531273D-01
      0.7489970000D+00  0.3285184468D-01  0.2740581964D+00
      0.2831450000D+00  0.1081254762D+01  0.7854215630D+00
 SP   1 1.00       0.000000000000
      0.9983170000D-01  0.1000000000D+01  0.1000000000D+01
 D   1 1.00       0.000000000000
      0.5500000000D+00  0.1000000000D+01
 ****
     10 0
 S   6 1.00       0.000000000000
      0.5484671660D+04  0.1831074430D-02
      0.8252349460D+03  0.1395017220D-01
      0.1880469580D+03  0.6844507810D-01
      0.5296450000D+02  0.2327143360D+00
      0.1689757040D+02  0.4701928980D+00
      0.5799635340D+01  0.3585208530D+00
 SP   3 1.00       0.000000000000
      0.1553961625D+02 -0.1107775495D+00  0.7087426823D-01
      0.3599933586D+01 -0.1480262627D+00  0.3397528391D+00
      0.1013761750D+01  0.1130767015D+01  0.7271585773D+00
 SP   1 1.00       0.000000000000
      0.2700058226D+00  0.1000000000D+01  0.1000000000D+01
 D   1 1.00       0.000000000000
      0.8000000000D+00  0.1000000000D+01
 ****
     11 0
 S   3 1.00       0.000000000000
      0.1873113696D+02  0.3349460434D-01
      0.2825394365D+01  0.2347269535D+00
      0.6401216923D+00  0.8137573261D+00
 S   1 1.00       0.000000000000
      0.1612777588D+00  0.1000000000D+01
 P   1 1.00       0.000000000000
      0.1100000000D+01  0.1000000000D+01
 ****
     12 0
 S   6 1.00       0.000000000000
      0.5484671660D+04  0.1831074430D-02
      0.8252349460D+03  0.1395017220D-01
      0.1880469580D+03  0.6844507810D-01
      0.5296450000D+02  0.2327143360D+00
      0.1689757040D+02  0.4701928980D+00
      0.5799635340D+01  0.3585208530D+00
 SP   3 1.00       0.000000000000
      0.1553961625D+02 -0.1107775495D+00  0.7087426823D-01
      0.3599933586D+01 -0.1480262627D+00  0.3397528391D+00
      0.1013761750D+01  0.1130767015D+01  0.7271585773D+00
 SP   1 1.00       0.000000000000
      0.2700058226D+00  0.1000000000D+01  0.1000000000D+01
 D   1 1.00       0.000000000000
      0.8000000000D+00  0.1000000000D+01
 ****
     13 0
 S   3 1.00       0.000000000000
      0.1873113696D+02  0.3349460434D-01
      0.2825394365D+01  0.2347269535D+00
      0.6401216923D+00  0.8137573261D+00
 S   1 1.00       0.000000000000
      0.1612777588D+00  0.1000000000D+01
 P   1 1.00       0.000000000000
      0.1100000000D+01  0.1000000000D+01
 ****
     14 0
 S   6 1.00       0.000000000000
      0.5484671660D+04  0.1831074430D-02
      0.8252349460D+03  0.1395017220D-01
      0.1880469580D+03  0.6844507810D-01
      0.5296450000D+02  0.2327143360D+00
      0.1689757040D+02  0.4701928980D+00
      0.5799635340D+01  0.3585208530D+00
 SP   3 1.00       0.000000000000
      0.1553961625D+02 -0.1107775495D+00  0.7087426823D-01
      0.3599933586D+01 -0.1480262627D+00  0.3397528391D+00
      0.1013761750D+01  0.1130767015D+01  0.7271585773D+00
 SP   1 1.00       0.000000000000
      0.2700058226D+00  0.1000000000D+01  0.1000000000D+01
 D   1 1.00       0.000000000000
      0.8000000000D+00  0.1000000000D+01
 ****
     15 0
 S   3 1.00       0.000000000000
      0.1873113696D+02  0.3349460434D-01
      0.2825394365D+01  0.2347269535D+00
      0.6401216923D+00  0.8137573261D+00
 S   1 1.00       0.000000000000
      0.1612777588D+00  0.1000000000D+01
 P   1 1.00       0.000000000000
      0.1100000000D+01  0.1000000000D+01
 ****
     16 0
 S   6 1.00       0.000000000000
      0.5484671660D+04  0.1831074430D-02
      0.8252349460D+03  0.1395017220D-01
      0.1880469580D+03  0.6844507810D-01
      0.5296450000D+02  0.2327143360D+00
      0.1689757040D+02  0.4701928980D+00
      0.5799635340D+01  0.3585208530D+00
 SP   3 1.00       0.000000000000
      0.1553961625D+02 -0.1107775495D+00  0.7087426823D-01
      0.3599933586D+01 -0.1480262627D+00  0.3397528391D+00
      0.1013761750D+01  0.1130767015D+01  0.7271585773D+00
 SP   1 1.00       0.000000000000
      0.2700058226D+00  0.1000000000D+01  0.1000000000D+01
 D   1 1.00       0.000000000000
      0.8000000000D+00  0.1000000000D+01
 ****
     17 0
 S   3 1.00       0.000000000000
      0.1873113696D+02  0.3349460434D-01
      0.2825394365D+01  0.2347269535D+00
      0.6401216923D+00  0.8137573261D+00
 S   1 1.00       0.000000000000
      0.1612777588D+00  0.1000000000D+01
 P   1 1.00       0.000000000000
      0.1100000000D+01  0.1000000000D+01
 ****
     18 0
 S   6 1.00       0.000000000000
      0.5484671660D+04  0.1831074430D-02
      0.8252349460D+03  0.1395017220D-01
      0.1880469580D+03  0.6844507810D-01
      0.5296450000D+02  0.2327143360D+00
      0.1689757040D+02  0.4701928980D+00
      0.5799635340D+01  0.3585208530D+00
 SP   3 1.00       0.000000000000
      0.1553961625D+02 -0.1107775495D+00  0.7087426823D-01
      0.3599933586D+01 -0.1480262627D+00  0.3397528391D+00
      0.1013761750D+01  0.1130767015D+01  0.7271585773D+00
 SP   1 1.00       0.000000000000
      0.2700058226D+00  0.1000000000D+01  0.1000000000D+01
 D   1 1.00       0.000000000000
      0.8000000000D+00  0.1000000000D+01
 ****
     19 0
 S   6 1.00       0.000000000000
      0.5484671660D+04  0.1831074430D-02
      0.8252349460D+03  0.1395017220D-01
      0.1880469580D+03  0.6844507810D-01
      0.5296450000D+02  0.2327143360D+00
      0.1689757040D+02  0.4701928980D+00
      0.5799635340D+01  0.3585208530D+00
 SP   3 1.00       0.000000000000
      0.1553961625D+02 -0.1107775495D+00  0.7087426823D-01
      0.3599933586D+01 -0.1480262627D+00  0.3397528391D+00
      0.1013761750D+01  0.1130767015D+01  0.7271585773D+00
 SP   1 1.00       0.000000000000
      0.2700058226D+00  0.1000000000D+01  0.1000000000D+01
 D   1 1.00       0.000000000000
      0.8000000000D+00  0.1000000000D+01
 ****

   213 basis functions,   412 primitive gaussians,   213 cartesian basis functions
    53 alpha electrons       52 beta electrons
       nuclear repulsion energy      1015.6344246122 Hartrees.
 NAtoms=   19 NActive=   19 NUniq=   19 SFac= 1.00D+00 NAtFMM=   60 NAOKFM=F Big=F
 ------------------------------------------------------------------------------
 Polarizable Continuum Model (PCM)
 =================================
 Model                : PCM.
 Atomic radii         : UFF (Universal Force Field).
 Polarization charges : Total charges.
 Charge compensation  : None.
 Solution method      : On-the-fly selection.
 Cavity type          : Scaled VdW (van der Waals Surface) (Alpha=1.100).
 Cavity algorithm     : GePol (No added spheres)
                        Default sphere list used, NSphG=   19.
                        Lebedev-Laikov grids with approx.  5.0 points / Ang**2.
                        Smoothing algorithm: York/Karplus (Gamma=1.0000).
                        Polarization charges: spherical gaussians, with
                                              point-specific exponents (IZeta= 3).
                        Self-potential: point-specific (ISelfS= 7).
                        Self-field    : sphere-specific E.n sum rule (ISelfD= 2).
 Solvent              : Water, Eps=  78.355300 Eps(inf)=   1.777849
 ------------------------------------------------------------------------------
 Spheres list:
 ISph  on   Nord     Re0    Alpha      Xe            Ye            Ze
    1   C      1    1.9255  1.100     -0.001711      0.687142     -0.198640
    2   C      2    1.9255  1.100     -0.003292      1.991592      0.608760
    3   H      3    1.4430  1.100     -0.001532      1.790932      1.682220
    4   H      4    1.4430  1.100      0.879467      2.579562      0.350060
    5   H      5    1.4430  1.100     -0.892893      2.573091      0.356510
    6   O      6    1.7500  1.100      0.000329      1.041312     -1.574790
    7   H      7    1.4430  1.100      0.057509      0.224672     -2.096250
    8   P      8    2.0735  1.100      1.548400     -0.270687      0.197820
    9   P      9    2.0735  1.100     -1.558910     -0.256710      0.199060
   10   O     10    1.7500  1.100      1.589791     -1.247367     -1.085140
   11   H     11    1.4430  1.100      2.461961     -1.639786     -1.250350
   12   O     12    1.7500  1.100      2.762239      0.750854     -0.131240
   13   H     13    1.4430  1.100      3.196149      1.064394      0.677700
   14   O     14    1.7500  1.100     -1.464719     -1.403600     -0.930670
   15   H     15    1.4430  1.100     -2.296149     -1.883810     -1.072590
   16   O     16    1.7500  1.100     -2.749801      0.684449     -0.368810
   17   H     17    1.4430  1.100     -3.284021      1.051399      0.352820
   18   O     18    1.7500  1.100     -1.744320     -0.678010      1.614050
   19   O     19    1.7500  1.100      1.614880     -0.887877      1.549840
 ------------------------------------------------------------------------------
 ExpMin= 9.98D-02 ExpMax= 1.94D+04 ExpMxC= 2.91D+03 IAcc=3 IRadAn=         5 AccDes= 0.00D+00
 Harris functional with IExCor=  402 and IRadAn=       5 diagonalized for initial guess.
 HarFok:  IExCor=  402 AccDes= 0.00D+00 IRadAn=         5 IDoV= 1 UseB2=F ITyADJ=14
 ICtDFT=  3500011 ScaDFX=  1.000000  1.000000  1.000000  1.000000
 FoFCou: FMM=F IPFlag=           0 FMFlag=      100000 FMFlg1=           0
         NFxFlg=           0 DoJE=T BraDBF=F KetDBF=T FulRan=T
         wScrn=  0.000000 ICntrl=       500 IOpCl=  0 I1Cent=   200000004 NGrid=           0
         NMat0=    1 NMatS0=      1 NMatT0=    0 NMatD0=    1 NMtDS0=    0 NMtDT0=    0
 Petite list used in FoFCou.
 Initial guess <Sx>= 0.0000 <Sy>= 0.0000 <Sz>= 0.5000 <S**2>= 0.7500 S= 0.5000
 Inv3:  Mode=1 IEnd=     8517675.
 Iteration    1 A*A^-1 deviation from unit magnitude is 7.11D-15 for    683.
 Iteration    1 A*A^-1 deviation from orthogonality  is 4.24D-15 for    746     49.
 Iteration    1 A^-1*A deviation from unit magnitude is 6.66D-15 for    683.
 Iteration    1 A^-1*A deviation from orthogonality  is 2.74D-15 for   1516    316.
 Restarting incremental Fock formation.
 Error on total polarization charges =  0.00353
 SCF Done:  E(UB3LYP) =  -1290.19347199     A.U. after   21 cycles
            NFock= 21  Conv=0.41D-08     -V/T= 2.0064
 <Sx>= 0.0000 <Sy>= 0.0000 <Sz>= 0.5000 <S**2>= 0.7576 S= 0.5038
 <L.S>= 0.000000000000E+00
 Annihilation of the first spin contaminant:
 S**2 before annihilation     0.7576,   after     0.7500

 **********************************************************************

            Population analysis using the SCF density.

 **********************************************************************

 Orbital symmetries:
 Alpha Orbitals:
       Occupied  (A) (A) (A) (A) (A) (A) (A) (A) (A) (A) (A) (A)
                 (A) (A) (A) (A) (A) (A) (A) (A) (A) (A) (A) (A)
                 (A) (A) (A) (A) (A) (A) (A) (A) (A) (A) (A) (A)
                 (A) (A) (A) (A) (A) (A) (A) (A) (A) (A) (A) (A)
                 (A) (A) (A) (A) (A)
       Virtual   (A) (A) (A) (A) (A) (A) (A) (A) (A) (A) (A) (A)
                 (A) (A) (A) (A) (A) (A) (A) (A) (A) (A) (A) (A)
                 (A) (A) (A) (A) (A) (A) (A) (A) (A) (A) (A) (A)
                 (A) (A) (A) (A) (A) (A) (A) (A) (A) (A) (A) (A)
                 (A) (A) (A) (A) (A) (A) (A) (A) (A) (A) (A) (A)
                 (A) (A) (A) (A) (A) (A) (A) (A) (A) (A) (A) (A)
                 (A) (A) (A) (A) (A) (A) (A) (A) (A) (A) (A) (A)
                 (A) (A) (A) (A) (A) (A) (A) (A) (A) (A) (A) (A)
                 (A) (A) (A) (A) (A) (A) (A) (A) (A) (A) (A) (A)
                 (A) (A) (A) (A) (A) (A) (A) (A) (A) (A) (A) (A)
                 (A) (A) (A) (A) (A) (A) (A) (A) (A) (A) (A) (A)
                 (A) (A) (A) (A) (A) (A) (A) (A) (A) (A) (A) (A)
                 (A) (A) (A) (A) (A) (A) (A) (A) (A) (A) (A) (A)
                 (A) (A) (A) (A)
 Beta  Orbitals:
       Occupied  (A) (A) (A) (A) (A) (A) (A) (A) (A) (A) (A) (A)
                 (A) (A) (A) (A) (A) (A) (A) (A) (A) (A) (A) (A)
                 (A) (A) (A) (A) (A) (A) (A) (A) (A) (A) (A) (A)
                 (A) (A) (A) (A) (A) (A) (A) (A) (A) (A) (A) (A)
                 (A) (A) (A) (A)
       Virtual   (A) (A) (A) (A) (A) (A) (A) (A) (A) (A) (A) (A)
                 (A) (A) (A) (A) (A) (A) (A) (A) (A) (A) (A) (A)
                 (A) (A) (A) (A) (A) (A) (A) (A) (A) (A) (A) (A)
                 (A) (A) (A) (A) (A) (A) (A) (A) (A) (A) (A) (A)
                 (A) (A) (A) (A) (A) (A) (A) (A) (A) (A) (A) (A)
                 (A) (A) (A) (A) (A) (A) (A) (A) (A) (A) (A) (A)
                 (A) (A) (A) (A) (A) (A) (A) (A) (A) (A) (A) (A)
                 (A) (A) (A) (A) (A) (A) (A) (A) (A) (A) (A) (A)
                 (A) (A) (A) (A) (A) (A) (A) (A) (A) (A) (A) (A)
                 (A) (A) (A) (A) (A) (A) (A) (A) (A) (A) (A) (A)
                 (A) (A) (A) (A) (A) (A) (A) (A) (A) (A) (A) (A)
                 (A) (A) (A) (A) (A) (A) (A) (A) (A) (A) (A) (A)
                 (A) (A) (A) (A) (A) (A) (A) (A) (A) (A) (A) (A)
                 (A) (A) (A) (A) (A)
 The electronic state is 2-A.
 Alpha  occ. eigenvalues --  -77.29415 -77.29351 -19.29572 -19.23802 -19.23773
 Alpha  occ. eigenvalues --  -19.23684 -19.23639 -19.20985 -19.20524 -10.36155
 Alpha  occ. eigenvalues --  -10.23662  -6.74357  -6.74278  -4.90715  -4.90644
 Alpha  occ. eigenvalues --   -4.90628  -4.90592  -4.90553  -4.90506  -1.15927
 Alpha  occ. eigenvalues --   -1.13123  -1.12762  -1.08054  -1.07908  -1.04765
 Alpha  occ. eigenvalues --   -1.04359  -0.85036  -0.73165  -0.71050  -0.65902
 Alpha  occ. eigenvalues --   -0.62273  -0.59924  -0.59493  -0.56942  -0.52956
 Alpha  occ. eigenvalues --   -0.52186  -0.50135  -0.47786  -0.46768  -0.46475
 Alpha  occ. eigenvalues --   -0.45536  -0.44680  -0.44520  -0.42970  -0.41868
 Alpha  occ. eigenvalues --   -0.41586  -0.41340  -0.40113  -0.38615  -0.38040
 Alpha  occ. eigenvalues --   -0.36721  -0.36505  -0.36050
 Alpha virt. eigenvalues --   -0.01755  -0.00964   0.00191   0.01817   0.04714
 Alpha virt. eigenvalues --    0.05580   0.07175   0.08117   0.08442   0.09425
 Alpha virt. eigenvalues --    0.10822   0.11596   0.12413   0.15266   0.15916
 Alpha virt. eigenvalues --    0.16292   0.17731   0.19953   0.28740   0.31165
 Alpha virt. eigenvalues --    0.32257   0.33653   0.34923   0.36843   0.37738
 Alpha virt. eigenvalues --    0.39172   0.43813   0.47718   0.50731   0.52646
 Alpha virt. eigenvalues --    0.53313   0.59884   0.66111   0.69792   0.70472
 Alpha virt. eigenvalues --    0.70996   0.72299   0.72840   0.73401   0.74650
 Alpha virt. eigenvalues --    0.76847   0.78795   0.80388   0.81205   0.81728
 Alpha virt. eigenvalues --    0.82691   0.85797   0.86073   0.87773   0.88707
 Alpha virt. eigenvalues --    0.90412   0.91337   0.93025   0.93880   0.94741
 Alpha virt. eigenvalues --    0.95550   0.97403   0.97582   0.98812   0.99325
 Alpha virt. eigenvalues --    1.02139   1.05023   1.06352   1.08668   1.09271
 Alpha virt. eigenvalues --    1.11153   1.12578   1.15313   1.15708   1.18044
 Alpha virt. eigenvalues --    1.23880   1.25171   1.30007   1.31372   1.34578
 Alpha virt. eigenvalues --    1.37600   1.39711   1.43920   1.48783   1.49620
 Alpha virt. eigenvalues --    1.51610   1.51996   1.52621   1.54630   1.59320
 Alpha virt. eigenvalues --    1.60356   1.62668   1.65081   1.65932   1.67555
 Alpha virt. eigenvalues --    1.70819   1.74941   1.75736   1.77259   1.78525
 Alpha virt. eigenvalues --    1.79138   1.79807   1.82229   1.83426   1.87634
 Alpha virt. eigenvalues --    1.90850   1.91372   1.94128   1.96883   1.99691
 Alpha virt. eigenvalues --    2.01089   2.03538   2.04046   2.09222   2.09728
 Alpha virt. eigenvalues --    2.13569   2.17279   2.25796   2.26403   2.29321
 Alpha virt. eigenvalues --    2.29517   2.30919   2.32116   2.36105   2.37763
 Alpha virt. eigenvalues --    2.42883   2.43817   2.44873   2.56263   2.57249
 Alpha virt. eigenvalues --    2.57417   2.58075   2.58110   2.58831   2.59248
 Alpha virt. eigenvalues --    2.64338   2.65634   2.66774   2.69029   2.69449
 Alpha virt. eigenvalues --    2.72432   2.75503   2.76805   2.82993   2.86014
 Alpha virt. eigenvalues --    2.92723   3.17832   3.29911   3.31801   3.31888
 Alpha virt. eigenvalues --    3.33237   3.37183   3.39681   3.39924   3.45021
 Alpha virt. eigenvalues --    3.49620   3.77632   3.82518   3.85859   3.95091
 Alpha virt. eigenvalues --    4.01987   4.18746   4.22218   4.30496   4.52863
  Beta  occ. eigenvalues --  -77.29415 -77.29349 -19.28735 -19.23716 -19.23695
  Beta  occ. eigenvalues --  -19.23651 -19.23612 -19.20329 -19.19936 -10.35968
  Beta  occ. eigenvalues --  -10.23668  -6.74355  -6.74274  -4.90726  -4.90653
  Beta  occ. eigenvalues --   -4.90645  -4.90564  -4.90561  -4.90475  -1.14635
  Beta  occ. eigenvalues --   -1.12843  -1.12002  -1.07897  -1.07757  -1.03408
  Beta  occ. eigenvalues --   -1.03053  -0.84269  -0.72784  -0.70357  -0.65519
  Beta  occ. eigenvalues --   -0.62009  -0.59805  -0.59162  -0.55675  -0.52426
  Beta  occ. eigenvalues --   -0.51599  -0.49596  -0.47511  -0.46201  -0.45743
  Beta  occ. eigenvalues --   -0.44420  -0.44378  -0.42902  -0.42551  -0.41483
  Beta  occ. eigenvalues --   -0.41039  -0.39895  -0.39211  -0.36741  -0.36136
  Beta  occ. eigenvalues --   -0.35782  -0.35031
  Beta virt. eigenvalues --   -0.28124  -0.01310  -0.00514   0.00482   0.02174
  Beta virt. eigenvalues --    0.04958   0.06359   0.07638   0.08348   0.08867
  Beta virt. eigenvalues --    0.09607   0.11001   0.11755   0.12537   0.15386
  Beta virt. eigenvalues --    0.16040   0.16417   0.18002   0.20180   0.28808
  Beta virt. eigenvalues --    0.31320   0.32679   0.33699   0.35150   0.37027
  Beta virt. eigenvalues --    0.37921   0.39319   0.43992   0.47900   0.50993
  Beta virt. eigenvalues --    0.52737   0.53674   0.60040   0.66555   0.69875
  Beta virt. eigenvalues --    0.70583   0.71112   0.72474   0.72972   0.73481
  Beta virt. eigenvalues --    0.74947   0.77077   0.78886   0.80863   0.81484
  Beta virt. eigenvalues --    0.82243   0.82884   0.85901   0.86262   0.88042
  Beta virt. eigenvalues --    0.88870   0.90606   0.91512   0.93252   0.94435
  Beta virt. eigenvalues --    0.94976   0.96157   0.97916   0.98353   0.99354
  Beta virt. eigenvalues --    0.99902   1.02524   1.05330   1.06718   1.09086
  Beta virt. eigenvalues --    1.09711   1.11889   1.13062   1.15708   1.16109
  Beta virt. eigenvalues --    1.18240   1.24084   1.25422   1.30232   1.31872
  Beta virt. eigenvalues --    1.34833   1.37828   1.40218   1.44268   1.49269
  Beta virt. eigenvalues --    1.50112   1.51943   1.52097   1.52778   1.54762
  Beta virt. eigenvalues --    1.59423   1.60728   1.62786   1.65302   1.66230
  Beta virt. eigenvalues --    1.67877   1.71516   1.76080   1.76839   1.78126
  Beta virt. eigenvalues --    1.79152   1.80032   1.80392   1.82721   1.83835
  Beta virt. eigenvalues --    1.88085   1.91305   1.91810   1.94678   1.97084
  Beta virt. eigenvalues --    2.00438   2.01300   2.04277   2.04861   2.09627
  Beta virt. eigenvalues --    2.10190   2.13791   2.17496   2.26076   2.26469
  Beta virt. eigenvalues --    2.29467   2.29717   2.31478   2.33112   2.36241
  Beta virt. eigenvalues --    2.38012   2.43107   2.44049   2.45096   2.56660
  Beta virt. eigenvalues --    2.57292   2.57486   2.58129   2.58196   2.58905
  Beta virt. eigenvalues --    2.59404   2.64420   2.65777   2.66913   2.69120
  Beta virt. eigenvalues --    2.69538   2.72888   2.75885   2.77401   2.83123
  Beta virt. eigenvalues --    2.86152   2.93101   3.17942   3.29974   3.31844
  Beta virt. eigenvalues --    3.31928   3.33263   3.37407   3.39796   3.40079
  Beta virt. eigenvalues --    3.45100   3.49657   3.78321   3.82926   3.86399
  Beta virt. eigenvalues --    3.95709   4.02288   4.19001   4.22387   4.30872
  Beta virt. eigenvalues --    4.52984
     Alpha Molecular Orbital Coefficients:
                           1         2         3         4         5
                           O         O         O         O         O
     Eigenvalues --   -77.29415 -77.29351 -19.29572 -19.23802 -19.23773
   1 1   C  1S         -0.00003  -0.00003  -0.00002  -0.00001  -0.00002
   2        2S         -0.00002  -0.00002   0.00011  -0.00010  -0.00013
   3        2PX        -0.00005   0.00005   0.00000  -0.00006   0.00005
   4        2PY        -0.00000  -0.00000   0.00014   0.00002   0.00001
   5        2PZ         0.00000  -0.00000  -0.00032   0.00005   0.00006
   6        3S          0.00080   0.00082  -0.00091   0.00067   0.00080
   7        3PX        -0.00042   0.00041   0.00000  -0.00028   0.00026
   8        3PY        -0.00021  -0.00023  -0.00067  -0.00070  -0.00053
   9        3PZ         0.00006   0.00004   0.00090  -0.00030  -0.00020
  10        4XX        -0.00013  -0.00013   0.00003   0.00007   0.00006
  11        4YY        -0.00010  -0.00010   0.00005   0.00000  -0.00000
  12        4ZZ        -0.00008  -0.00007   0.00021  -0.00002  -0.00002
  13        4XY        -0.00004   0.00004   0.00000   0.00004  -0.00003
  14        4XZ         0.00002  -0.00002   0.00000   0.00000   0.00000
  15        4YZ         0.00001   0.00000  -0.00009  -0.00001   0.00000
  16 2   C  1S         -0.00001  -0.00002   0.00000  -0.00002  -0.00001
  17        2S         -0.00004  -0.00004   0.00008  -0.00013  -0.00010
  18        2PX         0.00002  -0.00002   0.00000  -0.00000   0.00001
  19        2PY         0.00003   0.00004   0.00002  -0.00000  -0.00001
  20        2PZ         0.00001   0.00001  -0.00010  -0.00003  -0.00003
  21        3S          0.00015   0.00015   0.00037   0.00083   0.00060
  22        3PX        -0.00002  -0.00000   0.00001  -0.00011   0.00009
  23        3PY         0.00012   0.00011  -0.00032  -0.00035  -0.00021
  24        3PZ         0.00007   0.00006   0.00043  -0.00004   0.00001
  25        4XX        -0.00002  -0.00002   0.00001  -0.00001   0.00002
  26        4YY        -0.00005  -0.00005  -0.00001  -0.00001  -0.00000
  27        4ZZ        -0.00004  -0.00004  -0.00009  -0.00002  -0.00001
  28        4XY        -0.00000   0.00000  -0.00000   0.00001  -0.00002
  29        4XZ        -0.00002   0.00002   0.00000   0.00001  -0.00001
  30        4YZ        -0.00000  -0.00000  -0.00001   0.00001   0.00000
  31 3   H  1S          0.00000   0.00000  -0.00006  -0.00005  -0.00004
  32        2S         -0.00020  -0.00018  -0.00037  -0.00013  -0.00008
  33        3PX         0.00002  -0.00002   0.00000   0.00001  -0.00000
  34        3PY         0.00003   0.00003   0.00003   0.00002   0.00001
  35        3PZ         0.00001   0.00001   0.00001   0.00001   0.00000
  36 4   H  1S         -0.00001   0.00000   0.00006  -0.00002   0.00002
  37        2S          0.00001  -0.00021   0.00013   0.00007  -0.00002
  38        3PX        -0.00000  -0.00001   0.00000  -0.00000   0.00002
  39        3PY        -0.00001   0.00004  -0.00001  -0.00000  -0.00000
  40        3PZ        -0.00001   0.00000  -0.00006  -0.00001  -0.00002
  41 5   H  1S         -0.00000  -0.00001   0.00006  -0.00000  -0.00002
  42        2S         -0.00022   0.00000   0.00015   0.00003   0.00005
  43        3PX         0.00001   0.00000   0.00000  -0.00002  -0.00000
  44        3PY         0.00004  -0.00001  -0.00001  -0.00001  -0.00000
  45        3PZ         0.00000  -0.00001  -0.00006  -0.00002  -0.00001
  46 6   O  1S          0.00000   0.00000   0.99269  -0.00002  -0.00005
  47        2S          0.00000   0.00001   0.02603  -0.00014  -0.00018
  48        2PX         0.00000  -0.00000   0.00004   0.00005  -0.00006
  49        2PY         0.00002   0.00001  -0.00102   0.00002   0.00002
  50        2PZ        -0.00001  -0.00001   0.00024  -0.00002  -0.00003
  51        3S         -0.00015  -0.00019   0.01233   0.00041   0.00059
  52        3PX         0.00009  -0.00008   0.00001  -0.00028   0.00030
  53        3PY        -0.00000   0.00001  -0.00015  -0.00000  -0.00002
  54        3PZ        -0.00009  -0.00010   0.00046   0.00014   0.00017
  55        4XX        -0.00001   0.00000  -0.00812  -0.00004  -0.00008
  56        4YY        -0.00000   0.00001  -0.00816  -0.00011  -0.00016
  57        4ZZ        -0.00001   0.00000  -0.00827  -0.00009  -0.00013
  58        4XY         0.00003  -0.00004  -0.00000   0.00005  -0.00004
  59        4XZ         0.00001  -0.00001  -0.00000  -0.00002   0.00003
  60        4YZ        -0.00000  -0.00000   0.00009   0.00000  -0.00000
  61 7   H  1S         -0.00001  -0.00002   0.00030  -0.00006  -0.00006
  62        2S         -0.00014  -0.00015  -0.00129   0.00031   0.00028
  63        3PX         0.00002  -0.00002   0.00001  -0.00001  -0.00000
  64        3PY         0.00001   0.00001  -0.00013   0.00002   0.00003
  65        3PZ        -0.00004  -0.00004  -0.00015   0.00002   0.00002
  66 8   P  1S         -0.00217   0.99625   0.00000   0.00000   0.00001
  67        2S         -0.00004   0.01418   0.00004   0.00001   0.00000
  68        2PX        -0.00001  -0.00001   0.00000   0.00000  -0.00004
  69        2PY         0.00001   0.00002  -0.00000  -0.00000  -0.00005
  70        2PZ         0.00000  -0.00003  -0.00000  -0.00000   0.00002
  71        3S          0.00014  -0.02723   0.00030   0.00008   0.00038
  72        3PX         0.00009   0.00011  -0.00009  -0.00002  -0.00001
  73        3PY        -0.00008  -0.00008   0.00006   0.00000   0.00018
  74        3PZ         0.00000   0.00004  -0.00002   0.00003  -0.00011
  75        4S          0.00008   0.00289  -0.00101  -0.00042  -0.00330
  76        4PX         0.00005  -0.00015   0.00013   0.00027  -0.00075
  77        4PY         0.00008   0.00007  -0.00050   0.00008  -0.00130
  78        4PZ        -0.00013   0.00004   0.00040  -0.00007   0.00206
  79        5XX        -0.00013   0.00942  -0.00002  -0.00002   0.00014
  80        5YY        -0.00003   0.00947   0.00003   0.00002   0.00010
  81        5ZZ        -0.00003   0.00948  -0.00004  -0.00001  -0.00011
  82        5XY         0.00002   0.00004  -0.00003   0.00001   0.00014
  83        5XZ        -0.00001  -0.00002   0.00001  -0.00003  -0.00006
  84        5YZ         0.00001   0.00000   0.00001   0.00001  -0.00009
  85 9   P  1S          0.99625   0.00218   0.00000   0.00001   0.00000
  86        2S          0.01418   0.00003   0.00005   0.00001   0.00002
  87        2PX         0.00001   0.00001  -0.00000   0.00003  -0.00000
  88        2PY         0.00001   0.00001  -0.00001  -0.00005  -0.00000
  89        2PZ        -0.00003  -0.00000  -0.00000   0.00003  -0.00000
  90        3S         -0.02723   0.00003   0.00030   0.00043   0.00013
  91        3PX        -0.00010  -0.00010   0.00007   0.00003   0.00004
  92        3PY        -0.00008  -0.00007   0.00011   0.00019   0.00002
  93        3PZ         0.00003   0.00002  -0.00000  -0.00011   0.00003
  94        4S          0.00289   0.00006  -0.00104  -0.00356  -0.00065
  95        4PX         0.00013  -0.00005  -0.00023   0.00045  -0.00043
  96        4PY         0.00008   0.00007  -0.00039  -0.00105   0.00017
  97        4PZ         0.00005  -0.00015   0.00042   0.00222  -0.00003
  98        5XX         0.00943  -0.00009  -0.00002   0.00013  -0.00001
  99        5YY         0.00947   0.00001   0.00004   0.00008   0.00002
 100        5ZZ         0.00949   0.00001  -0.00005  -0.00008  -0.00001
 101        5XY        -0.00004  -0.00002   0.00002  -0.00012  -0.00001
 102        5XZ         0.00002   0.00000   0.00000   0.00011   0.00002
 103        5YZ         0.00000   0.00001  -0.00000  -0.00013   0.00000
 104 10  O  1S          0.00002  -0.00001  -0.00002  -0.00003   0.00095
 105        2S          0.00007  -0.00005  -0.00012  -0.00002  -0.00022
 106        2PX        -0.00002  -0.00003   0.00002   0.00000   0.00002
 107        2PY         0.00001  -0.00005  -0.00001   0.00002  -0.00004
 108        2PZ         0.00001  -0.00008   0.00002  -0.00002   0.00003
 109        3S         -0.00029   0.00076   0.00058   0.00013   0.00151
 110        3PX         0.00012   0.00019  -0.00015  -0.00002  -0.00016
 111        3PY        -0.00011   0.00014   0.00021  -0.00007   0.00052
 112        3PZ        -0.00008   0.00028  -0.00006   0.00007   0.00012
 113        4XX         0.00007   0.00003  -0.00008  -0.00000  -0.00023
 114        4YY         0.00006  -0.00012  -0.00008  -0.00002  -0.00014
 115        4ZZ         0.00006  -0.00019  -0.00010  -0.00001  -0.00014
 116        4XY        -0.00001  -0.00002   0.00000   0.00001  -0.00004
 117        4XZ         0.00000   0.00000   0.00001  -0.00001  -0.00001
 118        4YZ        -0.00002  -0.00014  -0.00000  -0.00000  -0.00000
 119 11  H  1S         -0.00004  -0.00010   0.00002  -0.00001   0.00004
 120        2S         -0.00005  -0.00020   0.00006  -0.00002   0.00039
 121        3PX         0.00002   0.00001  -0.00002   0.00001  -0.00002
 122        3PY        -0.00001  -0.00001   0.00001   0.00000   0.00005
 123        3PZ        -0.00000  -0.00000   0.00002  -0.00001   0.00004
 124 12  O  1S          0.00000  -0.00001  -0.00003   0.00017   0.99268
 125        2S          0.00001  -0.00005  -0.00017  -0.00000   0.02572
 126        2PX         0.00001   0.00005   0.00003   0.00001  -0.00014
 127        2PY        -0.00000   0.00006   0.00000  -0.00000  -0.00014
 128        2PZ        -0.00000  -0.00005  -0.00000  -0.00000   0.00096
 129        3S         -0.00008   0.00075   0.00080   0.00002   0.01301
 130        3PX        -0.00001  -0.00014  -0.00024  -0.00006  -0.00059
 131        3PY         0.00002  -0.00020  -0.00006   0.00001  -0.00036
 132        3PZ         0.00002   0.00026  -0.00004   0.00001  -0.00040
 133        4XX         0.00001  -0.00016  -0.00009  -0.00001  -0.00827
 134        4YY         0.00001  -0.00011  -0.00012  -0.00001  -0.00829
 135        4ZZ         0.00001   0.00003  -0.00012  -0.00002  -0.00831
 136        4XY         0.00000  -0.00012   0.00000   0.00000  -0.00003
 137        4XZ        -0.00000   0.00008   0.00001  -0.00000   0.00001
 138        4YZ        -0.00000   0.00006   0.00001  -0.00000   0.00001
 139 13  H  1S         -0.00000  -0.00012  -0.00002   0.00001   0.00045
 140        2S         -0.00001  -0.00024   0.00008  -0.00002  -0.00089
 141        3PX         0.00000   0.00001  -0.00000   0.00000   0.00006
 142        3PY        -0.00000   0.00001  -0.00000  -0.00000   0.00004
 143        3PZ        -0.00000   0.00002  -0.00001  -0.00001   0.00001
 144 14  O  1S         -0.00001   0.00002  -0.00002   0.00070   0.00028
 145        2S         -0.00005   0.00008  -0.00015  -0.00025  -0.00007
 146        2PX         0.00004   0.00002  -0.00002  -0.00002  -0.00001
 147        2PY        -0.00005   0.00002  -0.00002  -0.00004   0.00001
 148        2PZ        -0.00007   0.00000   0.00002   0.00003  -0.00002
 149        3S          0.00075  -0.00029   0.00069   0.00161   0.00039
 150        3PX        -0.00023  -0.00011   0.00014   0.00015   0.00006
 151        3PY         0.00015  -0.00011   0.00025   0.00058   0.00000
 152        3PZ         0.00024  -0.00005  -0.00004   0.00006   0.00011
 153        4XX         0.00003   0.00006  -0.00012  -0.00026  -0.00005
 154        4YY        -0.00015   0.00006  -0.00009  -0.00016  -0.00006
 155        4ZZ        -0.00015   0.00006  -0.00012  -0.00016  -0.00005
 156        4XY         0.00004   0.00000  -0.00000   0.00002   0.00000
 157        4XZ         0.00001  -0.00000  -0.00001  -0.00001   0.00001
 158        4YZ        -0.00014  -0.00001  -0.00000   0.00000   0.00000
 159 15  H  1S         -0.00011  -0.00004   0.00003   0.00005  -0.00001
 160        2S         -0.00021  -0.00004   0.00006   0.00038   0.00001
 161        3PX        -0.00001  -0.00002   0.00002   0.00002   0.00000
 162        3PY        -0.00001  -0.00001   0.00001   0.00006   0.00000
 163        3PZ        -0.00001  -0.00000   0.00001   0.00003  -0.00001
 164 16  O  1S         -0.00001   0.00000  -0.00003   0.99268  -0.00018
 165        2S         -0.00004   0.00001  -0.00013   0.02572  -0.00001
 166        2PX        -0.00004  -0.00000  -0.00001   0.00002  -0.00001
 167        2PY         0.00005  -0.00000   0.00000  -0.00005  -0.00001
 168        2PZ        -0.00006  -0.00001  -0.00001   0.00098  -0.00000
 169        3S          0.00074  -0.00009   0.00063   0.01302  -0.00000
 170        3PX         0.00011   0.00000   0.00016   0.00065   0.00005
 171        3PY        -0.00017   0.00002  -0.00003  -0.00038   0.00002
 172        3PZ         0.00030   0.00002   0.00002  -0.00028  -0.00000
 173        4XX        -0.00014   0.00001  -0.00005  -0.00827   0.00000
 174        4YY        -0.00009   0.00001  -0.00008  -0.00829  -0.00001
 175        4ZZ         0.00000   0.00001  -0.00007  -0.00831  -0.00001
 176        4XY         0.00010  -0.00000  -0.00000   0.00002  -0.00000
 177        4XZ        -0.00012   0.00000  -0.00002  -0.00001   0.00000
 178        4YZ         0.00008  -0.00000   0.00002   0.00001   0.00000
 179 17  H  1S         -0.00012  -0.00000  -0.00005   0.00044   0.00001
 180        2S         -0.00024  -0.00001   0.00004  -0.00089  -0.00006
 181        3PX        -0.00001  -0.00000  -0.00001  -0.00006  -0.00001
 182        3PY         0.00001  -0.00000   0.00000   0.00004  -0.00000
 183        3PZ         0.00002  -0.00000   0.00000   0.00001  -0.00000
 184 18  O  1S          0.00002   0.00001   0.00000  -0.00010  -0.00001
 185        2S         -0.00004   0.00003   0.00003   0.00011  -0.00005
 186        2PX        -0.00001   0.00002   0.00000   0.00003  -0.00000
 187        2PY        -0.00005   0.00000  -0.00001  -0.00002   0.00001
 188        2PZ         0.00019  -0.00001  -0.00001   0.00000   0.00001
 189        3S          0.00042  -0.00011  -0.00013  -0.00058   0.00026
 190        3PX         0.00000  -0.00007   0.00001  -0.00015   0.00004
 191        3PY         0.00009  -0.00002   0.00005   0.00014  -0.00002
 192        3PZ        -0.00040   0.00005  -0.00001  -0.00017  -0.00007
 193        4XX         0.00007   0.00002   0.00003   0.00008  -0.00004
 194        4YY         0.00005   0.00005   0.00004   0.00011  -0.00002
 195        4ZZ        -0.00015   0.00002   0.00004   0.00014  -0.00002
 196        4XY        -0.00001  -0.00000  -0.00001   0.00002   0.00000
 197        4XZ         0.00004   0.00001   0.00000   0.00001  -0.00000
 198        4YZ         0.00008   0.00001  -0.00001  -0.00002   0.00001
 199 19  O  1S          0.00001   0.00002   0.00001  -0.00001  -0.00008
 200        2S          0.00004  -0.00003   0.00004  -0.00003   0.00013
 201        2PX        -0.00002  -0.00000  -0.00000  -0.00001  -0.00003
 202        2PY         0.00001  -0.00008  -0.00001   0.00000  -0.00001
 203        2PZ        -0.00001   0.00018  -0.00001   0.00001  -0.00000
 204        3S         -0.00014   0.00042  -0.00018   0.00018  -0.00070
 205        3PX         0.00008   0.00003   0.00000   0.00001   0.00017
 206        3PY        -0.00003   0.00014   0.00007   0.00001   0.00014
 207        3PZ         0.00005  -0.00037   0.00000  -0.00005  -0.00012
 208        4XX         0.00002   0.00007   0.00003  -0.00003   0.00010
 209        4YY         0.00005   0.00003   0.00005  -0.00001   0.00013
 210        4ZZ         0.00003  -0.00013   0.00004  -0.00001   0.00015
 211        4XY         0.00000   0.00001   0.00001   0.00000  -0.00002
 212        4XZ        -0.00001  -0.00002  -0.00000   0.00000  -0.00002
 213        4YZ         0.00001   0.00011  -0.00001   0.00000  -0.00002
                           6         7         8         9        10
                           O         O         O         O         O
     Eigenvalues --   -19.23684 -19.23639 -19.20985 -19.20524 -10.36155
   1 1   C  1S         -0.00003  -0.00003   0.00000   0.00001   0.99317
   2        2S         -0.00015  -0.00018  -0.00002  -0.00000   0.05018
   3        2PX        -0.00001   0.00000  -0.00003   0.00003  -0.00001
   4        2PY        -0.00005  -0.00006   0.00000   0.00001  -0.00001
   5        2PZ        -0.00005  -0.00003  -0.00005  -0.00006  -0.00069
   6        3S          0.00132   0.00150  -0.00017  -0.00031  -0.01970
   7        3PX         0.00080  -0.00066  -0.00012   0.00005   0.00000
   8        3PY         0.00022   0.00020  -0.00031  -0.00050  -0.00131
   9        3PZ         0.00019   0.00040   0.00038   0.00043   0.00056
  10        4XX        -0.00001  -0.00001   0.00004   0.00004  -0.00870
  11        4YY         0.00001   0.00000   0.00001   0.00002  -0.00883
  12        4ZZ        -0.00001  -0.00003   0.00001   0.00000  -0.00864
  13        4XY        -0.00003   0.00002   0.00004  -0.00004  -0.00000
  14        4XZ         0.00003  -0.00002  -0.00002   0.00001   0.00000
  15        4YZ        -0.00001   0.00000  -0.00003  -0.00003  -0.00000
  16 2   C  1S          0.00002   0.00002  -0.00003  -0.00003   0.00075
  17        2S          0.00008   0.00010  -0.00012  -0.00013  -0.00027
  18        2PX        -0.00002   0.00001   0.00007  -0.00006  -0.00000
  19        2PY         0.00001   0.00001   0.00004   0.00004  -0.00009
  20        2PZ         0.00003   0.00003  -0.00001  -0.00002   0.00004
  21        3S         -0.00063  -0.00073   0.00047   0.00060   0.00525
  22        3PX        -0.00000   0.00002  -0.00053   0.00048  -0.00001
  23        3PY         0.00034   0.00041  -0.00037  -0.00039  -0.00122
  24        3PZ         0.00007   0.00008  -0.00005  -0.00017  -0.00182
  25        4XX         0.00003   0.00004  -0.00006  -0.00008  -0.00008
  26        4YY        -0.00000  -0.00000  -0.00005  -0.00006  -0.00029
  27        4ZZ         0.00001   0.00002  -0.00004  -0.00004  -0.00016
  28        4XY         0.00001  -0.00001  -0.00000   0.00000  -0.00000
  29        4XZ         0.00002  -0.00001   0.00000  -0.00001  -0.00000
  30        4YZ        -0.00002  -0.00002   0.00001   0.00002  -0.00010
  31 3   H  1S          0.00007   0.00008  -0.00006  -0.00008  -0.00005
  32        2S         -0.00005  -0.00005   0.00013   0.00023  -0.00002
  33        3PX         0.00000  -0.00000   0.00001  -0.00001  -0.00000
  34        3PY        -0.00000  -0.00001  -0.00001  -0.00001   0.00001
  35        3PZ         0.00000   0.00001  -0.00000  -0.00001  -0.00002
  36 4   H  1S          0.00001   0.00002   0.00004  -0.00007  -0.00021
  37        2S         -0.00001  -0.00001   0.00031  -0.00019  -0.00054
  38        3PX         0.00001   0.00001  -0.00002  -0.00002   0.00001
  39        3PY        -0.00000  -0.00002  -0.00002   0.00003  -0.00004
  40        3PZ         0.00000  -0.00001   0.00001   0.00000  -0.00000
  41 5   H  1S          0.00002   0.00002  -0.00008   0.00003  -0.00020
  42        2S         -0.00000  -0.00002  -0.00012   0.00029  -0.00056
  43        3PX        -0.00001  -0.00002   0.00002   0.00002  -0.00002
  44        3PY        -0.00001  -0.00001   0.00002  -0.00002  -0.00004
  45        3PZ        -0.00000  -0.00000   0.00000   0.00002  -0.00000
  46 6   O  1S         -0.00003  -0.00006   0.00002   0.00002  -0.00015
  47        2S         -0.00008  -0.00017   0.00006   0.00005  -0.00043
  48        2PX        -0.00001   0.00002  -0.00004   0.00004   0.00000
  49        2PY        -0.00002  -0.00000  -0.00002  -0.00002   0.00004
  50        2PZ         0.00003   0.00001   0.00002   0.00002  -0.00012
  51        3S          0.00044   0.00076  -0.00009  -0.00000   0.00400
  52        3PX         0.00011  -0.00010   0.00016  -0.00014  -0.00001
  53        3PY        -0.00013  -0.00020   0.00008   0.00008  -0.00006
  54        3PZ        -0.00020  -0.00006  -0.00002   0.00003   0.00090
  55        4XX        -0.00003  -0.00009   0.00006   0.00005  -0.00017
  56        4YY        -0.00002  -0.00009   0.00006   0.00006  -0.00030
  57        4ZZ        -0.00009  -0.00013   0.00007   0.00007  -0.00075
  58        4XY        -0.00003   0.00003  -0.00001   0.00001   0.00000
  59        4XZ        -0.00002   0.00001   0.00001  -0.00001  -0.00000
  60        4YZ         0.00001  -0.00000   0.00001   0.00001   0.00019
  61 7   H  1S          0.00003   0.00001   0.00005   0.00005   0.00009
  62        2S         -0.00040  -0.00024  -0.00021  -0.00020  -0.00025
  63        3PX        -0.00005   0.00002  -0.00000   0.00001  -0.00000
  64        3PY        -0.00002  -0.00003  -0.00001  -0.00001  -0.00001
  65        3PZ        -0.00005  -0.00002  -0.00002  -0.00002   0.00013
  66 8   P  1S          0.00001  -0.00000  -0.00000   0.00002   0.00000
  67        2S         -0.00000  -0.00004  -0.00004  -0.00007  -0.00008
  68        2PX         0.00002   0.00001  -0.00000   0.00001   0.00002
  69        2PY         0.00003   0.00001   0.00000  -0.00002  -0.00002
  70        2PZ         0.00005   0.00001   0.00000   0.00000   0.00001
  71        3S          0.00032  -0.00015  -0.00016   0.00090   0.00002
  72        3PX        -0.00017  -0.00003   0.00006  -0.00009  -0.00046
  73        3PY        -0.00003  -0.00009  -0.00004   0.00005   0.00032
  74        3PZ        -0.00017  -0.00009  -0.00004   0.00016  -0.00010
  75        4S         -0.00338   0.00098   0.00071  -0.00308   0.00383
  76        4PX         0.00145  -0.00050  -0.00042   0.00037  -0.00089
  77        4PY         0.00051  -0.00005  -0.00025   0.00063   0.00148
  78        4PZ         0.00156   0.00015  -0.00021  -0.00241  -0.00113
  79        5XX        -0.00000   0.00001  -0.00005  -0.00028  -0.00003
  80        5YY         0.00005  -0.00004  -0.00003  -0.00025  -0.00005
  81        5ZZ         0.00013  -0.00001  -0.00001  -0.00018  -0.00001
  82        5XY         0.00003   0.00004  -0.00000  -0.00003  -0.00004
  83        5XZ        -0.00002   0.00006   0.00000  -0.00001  -0.00004
  84        5YZ         0.00024  -0.00000   0.00001  -0.00005  -0.00009
  85 9   P  1S         -0.00000   0.00001   0.00002  -0.00000   0.00000
  86        2S         -0.00007  -0.00001  -0.00007  -0.00004  -0.00008
  87        2PX        -0.00000  -0.00002  -0.00001   0.00000  -0.00002
  88        2PY         0.00001   0.00004  -0.00001   0.00000  -0.00002
  89        2PZ         0.00000   0.00005   0.00000  -0.00000   0.00001
  90        3S         -0.00023   0.00031   0.00092  -0.00015   0.00003
  91        3PX        -0.00004   0.00019   0.00009  -0.00005   0.00046
  92        3PY        -0.00008  -0.00005   0.00006  -0.00003   0.00030
  93        3PZ         0.00001  -0.00017   0.00016   0.00000  -0.00009
  94        4S          0.00168  -0.00322  -0.00319   0.00054   0.00388
  95        4PX         0.00083  -0.00144  -0.00019   0.00032   0.00111
  96        4PY        -0.00014   0.00058   0.00029  -0.00027   0.00128
  97        4PZ        -0.00007   0.00155  -0.00252  -0.00030  -0.00106
  98        5XX        -0.00003  -0.00002  -0.00028  -0.00004  -0.00005
  99        5YY        -0.00006   0.00009  -0.00026  -0.00002  -0.00008
 100        5ZZ        -0.00002   0.00007  -0.00017  -0.00002   0.00001
 101        5XY        -0.00003  -0.00004   0.00003  -0.00002   0.00007
 102        5XZ        -0.00004  -0.00001  -0.00000   0.00001   0.00002
 103        5YZ        -0.00000   0.00023  -0.00003   0.00001  -0.00008
 104 10  O  1S          0.99266   0.00620   0.00007   0.00008   0.00004
 105        2S          0.02577   0.00021   0.00013   0.00002   0.00016
 106        2PX         0.00081  -0.00002  -0.00001   0.00001   0.00005
 107        2PY         0.00009  -0.00002   0.00000   0.00005  -0.00002
 108        2PZ         0.00044   0.00002   0.00002  -0.00004  -0.00003
 109        3S          0.01277  -0.00022  -0.00064  -0.00013  -0.00111
 110        3PX        -0.00042   0.00011   0.00011  -0.00007  -0.00018
 111        3PY         0.00042   0.00001  -0.00007  -0.00020  -0.00013
 112        3PZ         0.00029  -0.00013  -0.00016   0.00036   0.00002
 113        4XX        -0.00829   0.00009   0.00011   0.00003   0.00009
 114        4YY        -0.00825   0.00003   0.00010   0.00001   0.00010
 115        4ZZ        -0.00827  -0.00000   0.00009   0.00007   0.00011
 116        4XY         0.00001  -0.00003  -0.00000  -0.00001  -0.00011
 117        4XZ        -0.00000   0.00000   0.00001  -0.00000   0.00002
 118        4YZ        -0.00004  -0.00001  -0.00001   0.00003   0.00002
 119 11  H  1S          0.00045  -0.00007  -0.00000  -0.00001   0.00009
 120        2S         -0.00093  -0.00001  -0.00007   0.00004   0.00005
 121        3PX         0.00001   0.00004   0.00002  -0.00000   0.00000
 122        3PY        -0.00004  -0.00003  -0.00001   0.00001   0.00001
 123        3PZ        -0.00004  -0.00000   0.00000   0.00000  -0.00000
 124 12  O  1S         -0.00104  -0.00031  -0.00001   0.00013   0.00004
 125        2S         -0.00011  -0.00003  -0.00002   0.00004   0.00019
 126        2PX        -0.00000  -0.00000   0.00000  -0.00000   0.00002
 127        2PY        -0.00004   0.00000   0.00001   0.00001  -0.00002
 128        2PZ         0.00002   0.00000  -0.00001  -0.00005  -0.00003
 129        3S          0.00059   0.00008   0.00008  -0.00017  -0.00118
 130        3PX        -0.00016   0.00002  -0.00001  -0.00005   0.00028
 131        3PY         0.00002  -0.00002  -0.00002  -0.00010   0.00018
 132        3PZ        -0.00017  -0.00003   0.00004   0.00038   0.00018
 133        4XX        -0.00003  -0.00001  -0.00001   0.00008   0.00013
 134        4YY        -0.00011  -0.00002  -0.00002   0.00008   0.00009
 135        4ZZ        -0.00009  -0.00003  -0.00002   0.00006   0.00005
 136        4XY        -0.00003  -0.00000   0.00000   0.00001  -0.00004
 137        4XZ        -0.00001   0.00000  -0.00001  -0.00002   0.00001
 138        4YZ        -0.00004  -0.00000  -0.00001   0.00001  -0.00005
 139 13  H  1S          0.00008   0.00001  -0.00001  -0.00010   0.00004
 140        2S         -0.00029  -0.00000   0.00008   0.00030  -0.00034
 141        3PX         0.00000  -0.00000  -0.00000  -0.00002   0.00004
 142        3PY         0.00002  -0.00000  -0.00000  -0.00001   0.00000
 143        3PZ        -0.00003  -0.00001  -0.00000   0.00004  -0.00000
 144 14  O  1S         -0.00614   0.99267   0.00011   0.00003   0.00005
 145        2S         -0.00005   0.02578   0.00003   0.00010   0.00018
 146        2PX         0.00002  -0.00084  -0.00001  -0.00000  -0.00004
 147        2PY        -0.00001   0.00007   0.00005   0.00001  -0.00004
 148        2PZ         0.00001   0.00040  -0.00005   0.00000  -0.00003
 149        3S         -0.00075   0.01272  -0.00018  -0.00052  -0.00119
 150        3PX        -0.00008   0.00036   0.00002  -0.00002   0.00012
 151        3PY        -0.00008   0.00051  -0.00017  -0.00011  -0.00009
 152        3PZ        -0.00016   0.00023   0.00040  -0.00006   0.00002
 153        4XX         0.00022  -0.00827   0.00004   0.00006   0.00011
 154        4YY         0.00016  -0.00824   0.00003   0.00006   0.00014
 155        4ZZ         0.00014  -0.00825   0.00008   0.00006   0.00012
 156        4XY         0.00003  -0.00001   0.00001  -0.00001   0.00010
 157        4XZ        -0.00000   0.00001   0.00000   0.00000  -0.00003
 158        4YZ        -0.00000  -0.00004   0.00004   0.00000   0.00003
 159 15  H  1S         -0.00004   0.00044  -0.00003   0.00003   0.00007
 160        2S         -0.00004  -0.00091   0.00005  -0.00008   0.00010
 161        3PX        -0.00004  -0.00001  -0.00001  -0.00000  -0.00001
 162        3PY        -0.00003  -0.00004   0.00001   0.00000   0.00000
 163        3PZ        -0.00000  -0.00003   0.00000  -0.00000  -0.00000
 164 16  O  1S          0.00004  -0.00080   0.00014  -0.00000   0.00003
 165        2S          0.00001  -0.00014   0.00003  -0.00001   0.00014
 166        2PX         0.00001  -0.00000   0.00000  -0.00001  -0.00003
 167        2PY         0.00000  -0.00003  -0.00000   0.00000  -0.00002
 168        2PZ        -0.00001   0.00003  -0.00005  -0.00001  -0.00003
 169        3S         -0.00007   0.00077  -0.00014   0.00003  -0.00094
 170        3PX        -0.00008   0.00021   0.00004   0.00001  -0.00021
 171        3PY        -0.00001  -0.00003  -0.00004   0.00001   0.00017
 172        3PZ         0.00002  -0.00018   0.00040   0.00007   0.00011
 173        4XX         0.00001  -0.00005   0.00007  -0.00001   0.00011
 174        4YY         0.00001  -0.00014   0.00007  -0.00002   0.00004
 175        4ZZ         0.00000  -0.00012   0.00005  -0.00000   0.00001
 176        4XY         0.00000   0.00003  -0.00001   0.00000   0.00005
 177        4XZ         0.00000   0.00001   0.00002   0.00001  -0.00000
 178        4YZ        -0.00001  -0.00004   0.00000  -0.00001  -0.00005
 179 17  H  1S         -0.00002   0.00008  -0.00010  -0.00002   0.00004
 180        2S          0.00006  -0.00027   0.00029   0.00008  -0.00029
 181        3PX         0.00000   0.00000   0.00001   0.00000  -0.00004
 182        3PY        -0.00000   0.00001  -0.00001  -0.00001  -0.00000
 183        3PZ         0.00000  -0.00004   0.00004  -0.00000  -0.00002
 184 18  O  1S         -0.00000  -0.00009   0.99266  -0.00001   0.00001
 185        2S          0.00015  -0.00000   0.02571  -0.00005   0.00006
 186        2PX         0.00003  -0.00006   0.00011  -0.00000   0.00002
 187        2PY        -0.00000   0.00004   0.00026  -0.00001   0.00003
 188        2PZ        -0.00002  -0.00000  -0.00086  -0.00001   0.00001
 189        3S         -0.00074   0.00003   0.01321   0.00017  -0.00028
 190        3PX        -0.00016   0.00030   0.00015   0.00001  -0.00023
 191        3PY        -0.00001  -0.00018   0.00023   0.00008  -0.00025
 192        3PZ         0.00017  -0.00024  -0.00049   0.00003   0.00012
 193        4XX         0.00011   0.00005  -0.00828  -0.00001   0.00002
 194        4YY         0.00010  -0.00001  -0.00831  -0.00004  -0.00001
 195        4ZZ         0.00009   0.00008  -0.00830  -0.00004  -0.00000
 196        4XY        -0.00000  -0.00000   0.00003  -0.00000   0.00002
 197        4XZ         0.00002  -0.00003  -0.00001   0.00001   0.00004
 198        4YZ        -0.00001   0.00001  -0.00001  -0.00001   0.00002
 199 19  O  1S         -0.00007   0.00001  -0.00001   0.99267  -0.00000
 200        2S         -0.00005   0.00008  -0.00002   0.02571   0.00002
 201        2PX         0.00005   0.00001   0.00001  -0.00004  -0.00002
 202        2PY         0.00004   0.00002  -0.00001   0.00037   0.00002
 203        2PZ         0.00001   0.00000  -0.00001  -0.00083   0.00002
 204        3S          0.00028  -0.00044   0.00004   0.01310  -0.00010
 205        3PX        -0.00027   0.00001  -0.00004  -0.00010   0.00021
 206        3PY        -0.00015  -0.00005   0.00007   0.00030  -0.00024
 207        3PZ        -0.00033   0.00004   0.00005  -0.00045   0.00009
 208        4XX         0.00001   0.00006   0.00001  -0.00826   0.00000
 209        4YY        -0.00003   0.00004  -0.00003  -0.00828  -0.00004
 210        4ZZ         0.00006   0.00005  -0.00003  -0.00828  -0.00003
 211        4XY        -0.00000   0.00001   0.00000  -0.00003  -0.00001
 212        4XZ         0.00003   0.00000  -0.00000   0.00001  -0.00004
 213        4YZ        -0.00001  -0.00001  -0.00002  -0.00002   0.00002
                          11        12        13        14        15
                           O         O         O         O         O
     Eigenvalues --   -10.23662  -6.74357  -6.74278  -4.90715  -4.90644
   1 1   C  1S         -0.00094   0.00012   0.00012   0.00002   0.00002
   2        2S          0.00000   0.00084   0.00085   0.00022   0.00016
   3        2PX         0.00001   0.00003  -0.00004  -0.00023   0.00021
   4        2PY        -0.00014  -0.00006  -0.00009   0.00040   0.00043
   5        2PZ        -0.00002   0.00013   0.00012   0.00009   0.00012
   6        3S          0.00332  -0.00425  -0.00432  -0.00156  -0.00132
   7        3PX         0.00002   0.00217  -0.00217   0.00183  -0.00150
   8        3PY         0.00216   0.00065   0.00084  -0.00380  -0.00383
   9        3PZ         0.00105  -0.00051  -0.00038  -0.00066  -0.00174
  10        4XX        -0.00010   0.00007   0.00007  -0.00014  -0.00011
  11        4YY        -0.00035   0.00021   0.00022   0.00013   0.00008
  12        4ZZ        -0.00019   0.00017   0.00017  -0.00008  -0.00001
  13        4XY         0.00000  -0.00013   0.00014   0.00012  -0.00014
  14        4XZ        -0.00000   0.00001  -0.00001   0.00014  -0.00020
  15        4YZ        -0.00011   0.00001   0.00002  -0.00012  -0.00015
  16 2   C  1S          0.99296  -0.00000  -0.00000   0.00004   0.00002
  17        2S          0.05023  -0.00012  -0.00011  -0.00002  -0.00010
  18        2PX        -0.00002   0.00004  -0.00005  -0.00006   0.00004
  19        2PY        -0.00050  -0.00007  -0.00007  -0.00024  -0.00023
  20        2PZ        -0.00018  -0.00006  -0.00005  -0.00009  -0.00009
  21        3S         -0.01742   0.00068   0.00052   0.00146   0.00200
  22        3PX         0.00008  -0.00124   0.00131  -0.00016   0.00030
  23        3PY         0.00194  -0.00145  -0.00129  -0.00118  -0.00151
  24        3PZ         0.00089  -0.00026  -0.00026  -0.00138  -0.00128
  25        4XX        -0.00886   0.00001   0.00002   0.00016   0.00013
  26        4YY        -0.00906   0.00017   0.00017   0.00020   0.00021
  27        4ZZ        -0.00891   0.00001   0.00001   0.00017   0.00012
  28        4XY        -0.00000   0.00011  -0.00011   0.00015  -0.00014
  29        4XZ        -0.00000   0.00009  -0.00010   0.00005  -0.00004
  30        4YZ        -0.00014   0.00004   0.00003   0.00012   0.00011
  31 3   H  1S          0.00002  -0.00015  -0.00013  -0.00003  -0.00008
  32        2S          0.00223   0.00058   0.00057   0.00105   0.00104
  33        3PX        -0.00000   0.00000  -0.00001  -0.00005   0.00006
  34        3PY        -0.00010  -0.00003  -0.00003  -0.00002  -0.00003
  35        3PZ         0.00020  -0.00006  -0.00006  -0.00004  -0.00006
  36 4   H  1S         -0.00007   0.00011  -0.00018  -0.00001  -0.00020
  37        2S          0.00228   0.00070   0.00056  -0.00009   0.00121
  38        3PX         0.00017  -0.00000  -0.00001   0.00006   0.00002
  39        3PY         0.00005   0.00004  -0.00009   0.00004  -0.00017
  40        3PZ        -0.00009   0.00005  -0.00004   0.00002   0.00002
  41 5   H  1S         -0.00005  -0.00017   0.00012  -0.00018  -0.00001
  42        2S          0.00230   0.00067   0.00069   0.00135  -0.00000
  43        3PX        -0.00017   0.00002  -0.00000  -0.00003  -0.00005
  44        3PY         0.00005  -0.00010   0.00004  -0.00020   0.00004
  45        3PZ        -0.00008  -0.00004   0.00005   0.00001   0.00002
  46 6   O  1S         -0.00000  -0.00008  -0.00008  -0.00004   0.00001
  47        2S         -0.00005  -0.00038  -0.00040  -0.00015   0.00006
  48        2PX         0.00000   0.00012  -0.00011   0.00007  -0.00007
  49        2PY        -0.00007   0.00002   0.00002  -0.00009  -0.00009
  50        2PZ        -0.00008  -0.00001  -0.00001  -0.00002   0.00000
  51        3S         -0.00021   0.00185   0.00201   0.00095  -0.00024
  52        3PX        -0.00000  -0.00099   0.00092  -0.00055   0.00046
  53        3PY         0.00032  -0.00032  -0.00039   0.00082   0.00092
  54        3PZ         0.00029   0.00079   0.00079   0.00052   0.00003
  55        4XX        -0.00013  -0.00017  -0.00019  -0.00002   0.00010
  56        4YY         0.00002  -0.00023  -0.00024  -0.00031  -0.00017
  57        4ZZ         0.00009  -0.00018  -0.00019  -0.00003   0.00004
  58        4XY         0.00000   0.00004  -0.00003   0.00001  -0.00001
  59        4XZ         0.00000  -0.00016   0.00016  -0.00011   0.00011
  60        4YZ         0.00007  -0.00009  -0.00008   0.00008   0.00013
  61 7   H  1S          0.00014  -0.00009  -0.00009   0.00019   0.00016
  62        2S          0.00022   0.00076   0.00069  -0.00019  -0.00045
  63        3PX        -0.00000  -0.00004   0.00003   0.00007  -0.00009
  64        3PY        -0.00001   0.00003  -0.00000   0.00011   0.00010
  65        3PZ         0.00003   0.00012   0.00013  -0.00005  -0.00009
  66 8   P  1S         -0.00000   0.00004  -0.27420   0.00000  -0.00011
  67        2S         -0.00009  -0.00027   1.02396   0.00002   0.00047
  68        2PX        -0.00001   0.00004   0.00095   0.00257   0.38576
  69        2PY        -0.00001  -0.00000   0.00102  -0.00097   0.83016
  70        2PZ        -0.00002  -0.00001  -0.00433   0.00145   0.38110
  71        3S         -0.00027  -0.00057   0.07544   0.00030   0.00023
  72        3PX         0.00017  -0.00019  -0.00057   0.00062   0.01203
  73        3PY        -0.00011   0.00008   0.00068  -0.00045   0.02544
  74        3PZ         0.00018   0.00005  -0.00081   0.00013   0.01205
  75        4S          0.00164   0.00153  -0.01303  -0.00167  -0.00085
  76        4PX        -0.00026  -0.00171   0.00191   0.00092  -0.00256
  77        4PY         0.00102  -0.00090  -0.00106   0.00058  -0.00586
  78        4PZ         0.00048   0.00069   0.00049   0.00026  -0.00286
  79        5XX        -0.00010   0.00036  -0.01730  -0.00044   0.00094
  80        5YY        -0.00006  -0.00012  -0.01734  -0.00000   0.00049
  81        5ZZ        -0.00007  -0.00005  -0.01719  -0.00002  -0.00141
  82        5XY         0.00002  -0.00006   0.00000   0.00007   0.00100
  83        5XZ        -0.00003   0.00001   0.00011  -0.00011  -0.00034
  84        5YZ        -0.00001  -0.00000   0.00001   0.00008  -0.00157
  85 9   P  1S         -0.00000  -0.27419  -0.00006  -0.00008  -0.00000
  86        2S         -0.00010   1.02397   0.00011   0.00033   0.00001
  87        2PX         0.00002  -0.00063  -0.00003  -0.42220  -0.01675
  88        2PY        -0.00001   0.00036  -0.00000   0.87210  -0.00992
  89        2PZ        -0.00001  -0.00429  -0.00001   0.21164   0.00396
  90        3S         -0.00033   0.07553  -0.00056   0.00018   0.00018
  91        3PX        -0.00024   0.00062   0.00018  -0.01315  -0.00101
  92        3PY        -0.00004   0.00059   0.00010   0.02676  -0.00072
  93        3PZ         0.00014  -0.00077   0.00005   0.00682   0.00028
  94        4S          0.00182  -0.01336   0.00161  -0.00041  -0.00084
  95        4PX         0.00018  -0.00197   0.00165   0.00300  -0.00029
  96        4PY         0.00126  -0.00109  -0.00079  -0.00615   0.00050
  97        4PZ         0.00041   0.00059   0.00081  -0.00161   0.00034
  98        5XX        -0.00010  -0.01731   0.00036   0.00094  -0.00043
  99        5YY        -0.00006  -0.01733  -0.00013   0.00001   0.00002
 100        5ZZ        -0.00006  -0.01723  -0.00004  -0.00091  -0.00002
 101        5XY        -0.00002   0.00000   0.00006  -0.00075  -0.00008
 102        5XZ         0.00004  -0.00014  -0.00000   0.00067   0.00013
 103        5YZ        -0.00001   0.00001  -0.00000  -0.00185   0.00013
 104 10  O  1S         -0.00002  -0.00001  -0.00005   0.00005   0.00031
 105        2S         -0.00009  -0.00001   0.00040   0.00015  -0.00074
 106        2PX         0.00002   0.00005   0.00009  -0.00014   0.00001
 107        2PY         0.00000  -0.00006   0.00016   0.00005  -0.00034
 108        2PZ        -0.00003  -0.00000   0.00030   0.00004  -0.00049
 109        3S          0.00037  -0.00021  -0.00276  -0.00029   0.00336
 110        3PX        -0.00015  -0.00023  -0.00103   0.00078   0.00042
 111        3PY         0.00004   0.00035  -0.00077  -0.00039   0.00162
 112        3PZ         0.00016   0.00002  -0.00165  -0.00022   0.00277
 113        4XX        -0.00008  -0.00005  -0.00008   0.00025   0.00015
 114        4YY        -0.00007  -0.00003   0.00037   0.00018  -0.00034
 115        4ZZ        -0.00006  -0.00004   0.00049   0.00016  -0.00002
 116        4XY        -0.00001   0.00005   0.00011  -0.00004  -0.00026
 117        4XZ        -0.00000   0.00001  -0.00002  -0.00001  -0.00018
 118        4YZ         0.00002   0.00007   0.00017  -0.00007  -0.00006
 119 11  H  1S          0.00002   0.00015   0.00053  -0.00034  -0.00048
 120        2S          0.00018   0.00027   0.00089  -0.00014  -0.00078
 121        3PX        -0.00002  -0.00006  -0.00008   0.00012   0.00014
 122        3PY         0.00002   0.00003   0.00016  -0.00005  -0.00019
 123        3PZ         0.00000   0.00002   0.00018  -0.00001  -0.00030
 124 12  O  1S          0.00003  -0.00003  -0.00005   0.00001  -0.00018
 125        2S          0.00015  -0.00013   0.00041   0.00003   0.00106
 126        2PX        -0.00003  -0.00004  -0.00014  -0.00000  -0.00034
 127        2PY         0.00000   0.00004  -0.00024  -0.00001  -0.00028
 128        2PZ        -0.00001   0.00002   0.00018   0.00001   0.00024
 129        3S         -0.00070   0.00077  -0.00295  -0.00018  -0.00480
 130        3PX         0.00034   0.00006   0.00068   0.00000   0.00168
 131        3PY         0.00006  -0.00024   0.00126   0.00001   0.00129
 132        3PZ         0.00006  -0.00013  -0.00152  -0.00006  -0.00223
 133        4XX         0.00007  -0.00009   0.00045   0.00002   0.00034
 134        4YY         0.00010  -0.00008   0.00034   0.00004   0.00072
 135        4ZZ         0.00011  -0.00009  -0.00012   0.00002  -0.00010
 136        4XY         0.00001   0.00000   0.00012   0.00002  -0.00004
 137        4XZ         0.00003   0.00000  -0.00026  -0.00000  -0.00001
 138        4YZ         0.00003   0.00000  -0.00019  -0.00000  -0.00006
 139 13  H  1S         -0.00002   0.00000   0.00069   0.00004   0.00088
 140        2S         -0.00040   0.00022   0.00112  -0.00016   0.00211
 141        3PX         0.00005  -0.00003  -0.00021   0.00001  -0.00034
 142        3PY         0.00003   0.00000  -0.00020   0.00001  -0.00022
 143        3PZ         0.00003  -0.00000  -0.00010  -0.00000  -0.00006
 144 14  O  1S         -0.00003  -0.00006  -0.00002   0.00030   0.00010
 145        2S         -0.00011   0.00037  -0.00007  -0.00075   0.00034
 146        2PX        -0.00002  -0.00012  -0.00008   0.00005   0.00018
 147        2PY        -0.00001   0.00018  -0.00006  -0.00039   0.00006
 148        2PZ        -0.00003   0.00028   0.00001  -0.00044   0.00005
 149        3S          0.00047  -0.00260   0.00002   0.00340  -0.00111
 150        3PX         0.00015   0.00116   0.00039  -0.00072  -0.00102
 151        3PY         0.00009  -0.00084   0.00041   0.00187  -0.00056
 152        3PZ         0.00018  -0.00148  -0.00004   0.00250  -0.00033
 153        4XX        -0.00011  -0.00010  -0.00008   0.00012   0.00037
 154        4YY        -0.00008   0.00039  -0.00008  -0.00034   0.00033
 155        4ZZ        -0.00008   0.00043  -0.00012  -0.00001   0.00031
 156        4XY         0.00000  -0.00016  -0.00005   0.00033   0.00005
 157        4XZ         0.00000  -0.00001  -0.00001   0.00013   0.00002
 158        4YZ         0.00002   0.00018   0.00006   0.00002  -0.00007
 159 15  H  1S          0.00002   0.00053   0.00019  -0.00051  -0.00038
 160        2S          0.00021   0.00091   0.00025  -0.00086  -0.00011
 161        3PX         0.00002   0.00007   0.00007  -0.00011  -0.00014
 162        3PY         0.00002   0.00019   0.00004  -0.00024  -0.00008
 163        3PZ         0.00000   0.00017   0.00002  -0.00029   0.00000
 164 16  O  1S          0.00005  -0.00006  -0.00003  -0.00019  -0.00000
 165        2S          0.00023   0.00036  -0.00011   0.00102   0.00001
 166        2PX         0.00005   0.00012   0.00004   0.00031   0.00001
 167        2PY         0.00001  -0.00022   0.00004  -0.00026   0.00001
 168        2PZ         0.00001   0.00022   0.00002   0.00030   0.00002
 169        3S         -0.00102  -0.00269   0.00068  -0.00465  -0.00006
 170        3PX        -0.00049  -0.00045  -0.00006  -0.00144  -0.00003
 171        3PY         0.00006   0.00107  -0.00024   0.00106  -0.00004
 172        3PZ        -0.00005  -0.00171  -0.00008  -0.00251  -0.00011
 173        4XX         0.00013   0.00036  -0.00008   0.00027   0.00001
 174        4YY         0.00017   0.00026  -0.00007   0.00067   0.00002
 175        4ZZ         0.00017  -0.00007  -0.00007  -0.00011  -0.00001
 176        4XY        -0.00002  -0.00006   0.00000   0.00004  -0.00002
 177        4XZ        -0.00005   0.00035  -0.00000   0.00007   0.00001
 178        4YZ         0.00003  -0.00022  -0.00000  -0.00016  -0.00000
 179 17  H  1S          0.00000   0.00067  -0.00001   0.00086   0.00005
 180        2S         -0.00047   0.00115   0.00024   0.00206  -0.00010
 181        3PX        -0.00006   0.00022   0.00003   0.00034   0.00000
 182        3PY         0.00004  -0.00020   0.00000  -0.00021   0.00000
 183        3PZ         0.00004  -0.00007   0.00000  -0.00001  -0.00001
 184 18  O  1S          0.00007  -0.00025   0.00003  -0.00002   0.00001
 185        2S          0.00027   0.00041   0.00015  -0.00005   0.00009
 186        2PX         0.00003   0.00003  -0.00003  -0.00007   0.00002
 187        2PY         0.00007   0.00021  -0.00003   0.00014   0.00002
 188        2PZ        -0.00001  -0.00086  -0.00001   0.00003  -0.00002
 189        3S         -0.00128  -0.00217  -0.00095   0.00025  -0.00037
 190        3PX        -0.00014   0.00018  -0.00008   0.00033  -0.00005
 191        3PY        -0.00041  -0.00038   0.00013  -0.00053  -0.00012
[...]
  63         V                 0.096071          1.630890
  64         V                 0.110010          2.211998
  65         V                 0.117554          2.211170
  66         V                 0.125373          1.358306
  67         V                 0.153859          1.571456
  68         V                 0.160401          2.011473
  69         V                 0.164174          1.817649
  70         V                 0.180020          2.165102
  71         V                 0.201799          2.229869
  72         V                 0.288080          1.992402
  73         V                 0.313202          1.835418
  74         V                 0.326785          2.001839
  75         V                 0.336993          2.176697
  76         V                 0.351500          2.365585
  77         V                 0.370267          1.976639
  78         V                 0.379205          2.356481
  79         V                 0.393186          1.735228
  80         V                 0.439915          2.104215
  81         V                 0.479002          2.566269
  82         V                 0.509929          2.210286
  83         V                 0.527366          2.212094
  84         V                 0.536744          2.236572
  85         V                 0.600400          2.362237
  86         V                 0.665554          2.331541
  87         V                 0.698754          2.660456
  88         V                 0.705825          2.571867
  89         V                 0.711121          2.402140
  90         V                 0.724744          2.476365
  91         V                 0.729723          2.486409
  92         V                 0.734812          2.401832
  93         V                 0.749474          2.712553
  94         V                 0.770766          2.577472
  95         V                 0.788857          2.278234
  96         V                 0.808632          2.783118
  97         V                 0.814837          2.452742
  98         V                 0.822434          2.802176
  99         V                 0.828841          2.675925
 100         V                 0.859006          2.787499
 101         V                 0.862623          2.733542
 102         V                 0.880419          2.819515
 103         V                 0.888699          2.825449
 104         V                 0.906064          2.922699
 105         V                 0.915120          3.127274
 106         V                 0.932520          2.979389
 107         V                 0.944351          3.139308
 108         V                 0.949755          2.961787
 109         V                 0.961573          3.189502
 110         V                 0.979161          3.169282
 111         V                 0.983531          3.370419
 112         V                 0.993535          2.938372
 113         V                 0.999019          3.278975
 114         V                 1.025242          3.233193
 115         V                 1.053302          3.581268
 116         V                 1.067182          3.701799
 117         V                 1.090855          3.507614
 118         V                 1.097111          3.831862
 119         V                 1.118890          3.613027
 120         V                 1.130617          3.266013
 121         V                 1.157079          3.057877
 122         V                 1.161095          3.035222
 123         V                 1.182403          3.330306
 124         V                 1.240841          3.026356
 125         V                 1.254218          2.987000
 126         V                 1.302319          2.631561
 127         V                 1.318717          2.606759
 128         V                 1.348328          2.758873
 129         V                 1.378280          2.699609
 130         V                 1.402180          2.690801
 131         V                 1.442680          2.744691
 132         V                 1.492689          2.692156
 133         V                 1.501123          2.690876
 134         V                 1.519435          2.704369
 135         V                 1.520974          2.650481
 136         V                 1.527783          2.703792
 137         V                 1.547620          2.710368
 138         V                 1.594231          2.734619
 139         V                 1.607283          2.835909
 140         V                 1.627860          2.851545
 141         V                 1.653024          2.863693
 142         V                 1.662299          2.899885
 143         V                 1.678770          2.921945
 144         V                 1.715163          2.853854
 145         V                 1.760801          2.970381
 146         V                 1.768394          2.940934
 147         V                 1.781262          3.087906
 148         V                 1.791518          3.062803
 149         V                 1.800319          3.112885
 150         V                 1.803919          3.285410
 151         V                 1.827211          3.114739
 152         V                 1.838354          3.291247
 153         V                 1.880849          3.266790
 154         V                 1.913051          3.233836
 155         V                 1.918096          3.352246
 156         V                 1.946784          3.452163
 157         V                 1.970836          3.505217
 158         V                 2.004383          3.249734
 159         V                 2.013002          2.978334
 160         V                 2.042773          3.322561
 161         V                 2.048614          3.399472
 162         V                 2.096275          3.403596
 163         V                 2.101904          3.368948
 164         V                 2.137908          3.506253
 165         V                 2.174963          3.550682
 166         V                 2.260757          3.670721
 167         V                 2.264693          3.698420
 168         V                 2.294668          3.706876
 169         V                 2.297171          3.705157
 170         V                 2.314777          3.729593
 171         V                 2.331124          3.724826
 172         V                 2.362411          3.580800
 173         V                 2.380117          3.908593
 174         V                 2.431066          3.840291
 175         V                 2.440491          4.290368
 176         V                 2.450964          4.186098
 177         V                 2.566602          3.700490
 178         V                 2.572922          3.768903
 179         V                 2.574863          4.246422
 180         V                 2.581291          3.870668
 181         V                 2.581960          3.696031
 182         V                 2.589047          3.891158
 183         V                 2.594043          3.731560
 184         V                 2.644199          3.864197
 185         V                 2.657766          3.893931
 186         V                 2.669129          3.809420
 187         V                 2.691204          3.995804
 188         V                 2.695382          3.968478
 189         V                 2.728884          4.397714
 190         V                 2.758854          4.408447
 191         V                 2.774013          4.784194
 192         V                 2.831230          3.937336
 193         V                 2.861520          4.156783
 194         V                 2.931005          4.494556
 195         V                 3.179419          4.986996
 196         V                 3.299739          6.607296
 197         V                 3.318442          6.394546
 198         V                 3.319276          6.432437
 199         V                 3.332634          6.279566
 200         V                 3.374069          5.746341
 201         V                 3.397964          6.090886
 202         V                 3.400787          5.514068
 203         V                 3.451005          9.265212
 204         V                 3.496571         10.127757
 205         V                 3.783213          9.590435
 206         V                 3.829260          9.621051
 207         V                 3.863991         10.007933
 208         V                 3.957088         10.254256
 209         V                 4.022881         10.181731
 210         V                 4.190009         10.536252
 211         V                 4.223875         10.519349
 212         V                 4.308723         10.677146
 213         V                 4.529844         10.346442
 Total kinetic energy from orbitals= 1.282024032016D+03
                          Isotropic Fermi Contact Couplings
        Atom                 a.u.       MegaHertz       Gauss      10(-4) cm-1
     1  C(13)             -0.02240     -25.17962      -8.98471      -8.39902
     2  C(13)             -0.00425      -4.77585      -1.70414      -1.59305
     3  H(1)              -0.00033      -1.48112      -0.52850      -0.49405
     4  H(1)               0.00480      21.45552       7.65586       7.15679
     5  H(1)               0.00529      23.66487       8.44421       7.89375
     6  O(17)              0.04824     -29.24316     -10.43469      -9.75447
     7  H(1)              -0.00471     -21.04441      -7.50917      -7.01966
     8  P(31)              0.00992      17.96232       6.40940       5.99158
     9  P(31)              0.00434       7.86281       2.80564       2.62275
    10  O(17)             -0.00041       0.24581       0.08771       0.08199
    11  H(1)               0.00004       0.18453       0.06584       0.06155
    12  O(17)             -0.00150       0.90972       0.32461       0.30345
    13  H(1)              -0.00049      -2.20462      -0.78666      -0.73538
    14  O(17)              0.00066      -0.40077      -0.14301      -0.13368
    15  H(1)               0.00014       0.62425       0.22275       0.20823
    16  O(17)             -0.00293       1.77405       0.63303       0.59176
    17  H(1)              -0.00056      -2.50215      -0.89283      -0.83463
    18  O(17)              0.02404     -14.57370      -5.20026      -4.86126
    19  O(17)              0.02164     -13.11507      -4.67978      -4.37472
 --------------------------------------------------------
       Center         ----  Spin Dipole Couplings  ----
                      3XX-RR        3YY-RR        3ZZ-RR
 --------------------------------------------------------
     1   Atom        0.215025     -0.119498     -0.095527
     2   Atom        0.006957     -0.002257     -0.004700
     3   Atom       -0.002556      0.001065      0.001491
     4   Atom       -0.002670      0.003782     -0.001112
     5   Atom       -0.002570      0.004031     -0.001461
     6   Atom        1.263300     -0.636146     -0.627153
     7   Atom       -0.016734      0.026302     -0.009568
     8   Atom       -0.002748      0.010455     -0.007707
     9   Atom       -0.000504      0.004796     -0.004292
    10   Atom       -0.028456     -0.015810      0.044266
    11   Atom        0.001560     -0.001080     -0.000480
    12   Atom        0.078742     -0.065972     -0.012770
    13   Atom        0.002276     -0.003577      0.001301
    14   Atom       -0.024315      0.001612      0.022703
    15   Atom        0.000643     -0.000081     -0.000562
    16   Atom        0.046504     -0.073653      0.027148
    17   Atom        0.003271     -0.003927      0.000656
    18   Atom        0.777234     -0.279440     -0.497794
    19   Atom        0.646934     -0.202510     -0.444424
 --------------------------------------------------------
                        XY            XZ            YZ
 --------------------------------------------------------
     1   Atom        0.004477      0.003039     -0.004381
     2   Atom        0.000600      0.002078      0.004276
     3   Atom        0.000556     -0.000228      0.002979
     4   Atom        0.003422      0.000810      0.002495
     5   Atom       -0.003487     -0.001175      0.002512
     6   Atom        0.072498      0.038925      0.012512
     7   Atom       -0.002685     -0.002056      0.044685
     8   Atom       -0.064856      0.080402     -0.060411
     9   Atom        0.063197     -0.090265     -0.058860
    10   Atom       -0.000258      0.010387      0.034468
    11   Atom       -0.003584     -0.001224      0.001696
    12   Atom        0.035352     -0.083742     -0.019681
    13   Atom        0.004154      0.003156      0.001248
    14   Atom       -0.003851     -0.012924      0.038994
    15   Atom        0.003322      0.000741      0.002071
    16   Atom       -0.031874      0.105445     -0.025864
    17   Atom       -0.005058     -0.002951      0.000861
    18   Atom        0.498814      0.040045      0.026475
    19   Atom       -0.495959     -0.025493      0.023510
 --------------------------------------------------------


 ---------------------------------------------------------------------------------
              Anisotropic Spin Dipole Couplings in Principal Axis System
 ---------------------------------------------------------------------------------

       Atom             a.u.   MegaHertz   Gauss  10(-4) cm-1        Axes

              Baa    -0.1203   -16.149    -5.762    -5.387 -0.0147  0.9844  0.1755
     1 C(13)  Bbb    -0.0948   -12.717    -4.538    -4.242 -0.0071 -0.1757  0.9844
              Bcc     0.2151    28.866    10.300     9.629  0.9999  0.0133  0.0096
 
              Baa    -0.0080    -1.079    -0.385    -0.360 -0.0881 -0.5863  0.8053
     2 C(13)  Bbb     0.0005     0.069     0.025     0.023 -0.2520  0.7953  0.5514
              Bcc     0.0075     1.010     0.360     0.337  0.9637  0.1544  0.2178
 
              Baa    -0.0028    -1.516    -0.541    -0.506  0.8953 -0.3436  0.2834
     3 H(1)   Bbb    -0.0014    -0.763    -0.272    -0.254  0.4443  0.6443 -0.6225
              Bcc     0.0043     2.279     0.813     0.760  0.0313  0.6833  0.7295
 
              Baa    -0.0042    -2.226    -0.794    -0.743  0.9013 -0.4204  0.1042
     4 H(1)   Bbb    -0.0020    -1.078    -0.385    -0.360 -0.2321 -0.2655  0.9358
              Bcc     0.0062     3.305     1.179     1.102  0.3657  0.8676  0.3369
 
              Baa    -0.0041    -2.174    -0.776    -0.725  0.9228  0.3823  0.0474
     5 H(1)   Bbb    -0.0024    -1.292    -0.461    -0.431  0.0847 -0.3213  0.9432
              Bcc     0.0065     3.467     1.237     1.156 -0.3758  0.8664  0.3289
 
              Baa    -0.6457    46.725    16.673    15.586 -0.0215  0.8497 -0.5269
     6 O(17)  Bbb    -0.6211    44.945    16.038    14.992 -0.0378  0.5259  0.8497
              Bcc     1.2669   -91.671   -32.710   -30.578  0.9991  0.0382  0.0208
 
              Baa    -0.0398   -21.227    -7.574    -7.081  0.0087 -0.5599  0.8285
     7 H(1)   Bbb    -0.0169    -9.010    -3.215    -3.006  0.9989  0.0429  0.0185
              Bcc     0.0567    30.238    10.790    10.086 -0.0459  0.8275  0.5596
 
              Baa    -0.0857   -18.534    -6.614    -6.182  0.7103  0.0375 -0.7029
     8 P(31)  Bbb    -0.0514   -11.123    -3.969    -3.710  0.3816  0.8186  0.4292
              Bcc     0.1372    29.657    10.582     9.893  0.5915 -0.5731  0.5672
 
              Baa    -0.0928   -20.054    -7.156    -6.689  0.7121 -0.0384  0.7010
     9 P(31)  Bbb    -0.0494   -10.678    -3.810    -3.562 -0.3505  0.8458  0.4023
              Bcc     0.1422    30.732    10.966    10.251  0.6083  0.5322 -0.5888
 
              Baa    -0.0351     2.539     0.906     0.847  0.6204  0.6864 -0.3793
    10 O(17)  Bbb    -0.0258     1.869     0.667     0.624  0.7773 -0.6025  0.1811
              Bcc     0.0609    -4.409    -1.573    -1.471  0.1043  0.4072  0.9074
 
              Baa    -0.0038    -2.001    -0.714    -0.668  0.5039  0.8293 -0.2414
    11 H(1)   Bbb    -0.0011    -0.562    -0.201    -0.187  0.4277  0.0033  0.9039
              Bcc     0.0048     2.563     0.915     0.855  0.7504 -0.5588 -0.3530
 
              Baa    -0.0742     5.366     1.915     1.790 -0.2148  0.9764  0.0200
    12 O(17)  Bbb    -0.0623     4.511     1.610     1.505  0.4915  0.0904  0.8662
              Bcc     0.1365    -9.877    -3.524    -3.294  0.8440  0.1959 -0.4993
 
              Baa    -0.0058    -3.069    -1.095    -1.024 -0.4767  0.8771  0.0581
    13 H(1)   Bbb    -0.0008    -0.447    -0.160    -0.149 -0.4508 -0.3007  0.8405
              Bcc     0.0066     3.516     1.255     1.173  0.7547  0.3745  0.5387
 
              Baa    -0.0321     2.324     0.829     0.775  0.6264 -0.5579  0.5445
    14 O(17)  Bbb    -0.0225     1.625     0.580     0.542  0.7633  0.5807 -0.2830
              Bcc     0.0546    -3.949    -1.409    -1.317 -0.1583  0.5929  0.7896
 
              Baa    -0.0035    -1.874    -0.669    -0.625 -0.5300  0.7509 -0.3941
    15 H(1)   Bbb    -0.0009    -0.473    -0.169    -0.158 -0.5387  0.0607  0.8403
              Bcc     0.0044     2.348     0.838     0.783  0.6549  0.6577  0.3723
 
              Baa    -0.0816     5.904     2.107     1.969  0.2542  0.9670 -0.0165
    16 O(17)  Bbb    -0.0686     4.966     1.772     1.656 -0.6368  0.1802  0.7497
              Bcc     0.1502   -10.870    -3.879    -3.626  0.7280 -0.1801  0.6616
 
              Baa    -0.0066    -3.515    -1.254    -1.173  0.4758  0.8750  0.0899
    17 H(1)   Bbb    -0.0007    -0.360    -0.128    -0.120  0.3286 -0.2716  0.9046
              Bcc     0.0073     3.875     1.383     1.293  0.8159 -0.4008 -0.4167
 
              Baa    -0.5031    36.403    12.989    12.143  0.1056 -0.3459  0.9323
    18 O(17)  Bbb    -0.4739    34.292    12.236    11.439 -0.3554  0.8625  0.3603
              Bcc     0.9770   -70.695   -25.226   -23.581  0.9287  0.3694  0.0318
 
              Baa    -0.4509    32.628    11.643    10.884 -0.1759 -0.4348  0.8832
    19 O(17)  Bbb    -0.4251    30.759    10.975    10.260  0.3801  0.7976  0.4684
              Bcc     0.8760   -63.387   -22.618   -21.144  0.9081 -0.4181 -0.0250
 

 ---------------------------------------------------------------------------------


 Test job not archived.
 1\1\GINC-BATAGIN2\SP\UB3LYP\6-31G(d,p)\C2H8O7P2(1+,2)\ORISON\22-Jan-20
 21\0\\#t B3LYP/6-31G(d,p) scrf=(solvent=water) # Gfinput IOP(6/7=3) Po
 p=hirshfeld Density Test # Units(Ang,Deg)\\w-etidronate-opt-g09.log\\1
 ,2\C,0,-0.00171,0.68714,-0.19864\C,0,-0.00329,1.99159,0.60876\H,0,-0.0
 0153,1.79093,1.68222\H,0,0.87947,2.57956,0.35006\H,0,-0.89289,2.57309,
 0.35651\O,0,0.00033,1.04131,-1.57479\H,0,0.05751,0.22467,-2.09625\P,0,
 1.5484,-0.27069,0.19782\P,0,-1.55891,-0.25671,0.19906\O,0,1.58979,-1.2
 4737,-1.08514\H,0,2.46196,-1.63979,-1.25035\O,0,2.76224,0.75085,-0.131
 24\H,0,3.19615,1.06439,0.6777\O,0,-1.46472,-1.4036,-0.93067\H,0,-2.296
 15,-1.88381,-1.07259\O,0,-2.7498,0.68445,-0.36881\H,0,-3.28402,1.0514,
 0.35282\O,0,-1.74432,-0.67801,1.61405\O,0,1.61488,-0.88788,1.54984\\Ve
 rsion=EM64L-G16RevA.03\State=2-A\HF=-1290.193472\S2=0.757608\S2-1=0.\S
 2A=0.750041\RMSD=4.102e-09\Dipole=0.0161974,0.9466827,-1.1958181\Quadr
 upole=14.7063125,-2.8237929,-11.8825197,0.2962351,0.2764427,10.2995612
 \PG=C01 [X(C2H8O7P2)]\\@


 IF YOU WISH TO UNDERSTAND THE FRAGRANCE OF THE ROSE, 
 OR THE TENACITY OF THE OAK; 
 IF YOU ARE NOT SATISFIED UNTIL YOU KNOW THE SECRET PATHS 
 BY WHICH THE SUNSHINE AND THE AIR ACHIEVE THESE WONDERS; 
 IF YOU WISH TO SEE THE PATTERN WHICH UNDERLIES ONE LARGE FIELD OF 
 HUMAN EXPERIENCE AND HUMAN MEASUREMENT, THEN TAKE UP CHEMISTRY.

                                         -- C. A. COULSON, 1973.
 Job cpu time:       0 days  0 hours 11 minutes 55.7 seconds.
 Elapsed time:       0 days  0 hours  1 minutes 29.7 seconds.
 File lengths (MBytes):  RWF=     95 Int=      0 D2E=      0 Chk=      5 Scr=      1
 Normal termination of Gaussian 16 at Fri Jan 22 02:47:09 2021.
