 Entering Gaussian System, Link 0=g09
 Input=peg-6_opt_g09.com
 Output=peg-6_opt_g09.log
 Initial command:
 /opt/gridunesp/dist/gaussian/g09/l1.exe /store/rheinheimer/2838052/Gau-2774.inp -scrdir=/store/rheinheimer/2838052/
 Entering Link 1 = /opt/gridunesp/dist/gaussian/g09/l1.exe PID=      2776.
  
 Copyright (c) 1988,1990,1992,1993,1995,1998,2003,2009, Gaussian, Inc.
                  All Rights Reserved.
  
 This is part of the Gaussian(R) 09 program.  It is based on
 the Gaussian(R) 03 system (copyright 2003, Gaussian, Inc.),
 the Gaussian(R) 98 system (copyright 1998, Gaussian, Inc.),
 the Gaussian(R) 94 system (copyright 1995, Gaussian, Inc.),
 the Gaussian 92(TM) system (copyright 1992, Gaussian, Inc.),
 the Gaussian 90(TM) system (copyright 1990, Gaussian, Inc.),
 the Gaussian 88(TM) system (copyright 1988, Gaussian, Inc.),
 the Gaussian 86(TM) system (copyright 1986, Carnegie Mellon
 University), and the Gaussian 82(TM) system (copyright 1983,
 Carnegie Mellon University). Gaussian is a federally registered
 trademark of Gaussian, Inc.
  
 This software contains proprietary and confidential information,
 including trade secrets, belonging to Gaussian, Inc.
  
 This software is provided under written license and may be
 used, copied, transmitted, or stored only in accord with that
 written license.
  
 The following legend is applicable only to US Government
 contracts under FAR:
  
                    RESTRICTED RIGHTS LEGEND
  
 Use, reproduction and disclosure by the US Government is
 subject to restrictions as set forth in subparagraphs (a)
 and (c) of the Commercial Computer Software - Restricted
 Rights clause in FAR 52.227-19.
  
 Gaussian, Inc.
 340 Quinnipiac St., Bldg. 40, Wallingford CT 06492
  
  
 ---------------------------------------------------------------
 Warning -- This program may not be used in any manner that
 competes with the business of Gaussian, Inc. or will provide
 assistance to any competitor of Gaussian, Inc.  The licensee
 of this program is prohibited from giving any competitor of
 Gaussian, Inc. access to this program.  By using this program,
 the user acknowledges that Gaussian, Inc. is engaged in the
 business of creating and licensing software in the field of
 computational chemistry and represents and warrants to the
 licensee that it is not a competitor of Gaussian, Inc. and that
 it will not use this program in any manner prohibited above.
 ---------------------------------------------------------------
  

 Cite this work as:
 Gaussian 09, Revision A.02,
 M. J. Frisch, G. W. Trucks, H. B. Schlegel, G. E. Scuseria, 
 M. A. Robb, J. R. Cheeseman, G. Scalmani, V. Barone, B. Mennucci, 
 G. A. Petersson, H. Nakatsuji, M. Caricato, X. Li, H. P. Hratchian, 
 A. F. Izmaylov, J. Bloino, G. Zheng, J. L. Sonnenberg, M. Hada, 
 M. Ehara, K. Toyota, R. Fukuda, J. Hasegawa, M. Ishida, T. Nakajima, 
 Y. Honda, O. Kitao, H. Nakai, T. Vreven, J. A. Montgomery, Jr., 
 J. E. Peralta, F. Ogliaro, M. Bearpark, J. J. Heyd, E. Brothers, 
 K. N. Kudin, V. N. Staroverov, R. Kobayashi, J. Normand, 
 K. Raghavachari, A. Rendell, J. C. Burant, S. S. Iyengar, J. Tomasi, 
 M. Cossi, N. Rega, J. M. Millam, M. Klene, J. E. Knox, J. B. Cross, 
 V. Bakken, C. Adamo, J. Jaramillo, R. Gomperts, R. E. Stratmann, 
 O. Yazyev, A. J. Austin, R. Cammi, C. Pomelli, J. W. Ochterski, 
 R. L. Martin, K. Morokuma, V. G. Zakrzewski, G. A. Voth, 
 P. Salvador, J. J. Dannenberg, S. Dapprich, A. D. Daniels, 
 O. Farkas, J. B. Foresman, J. V. Ortiz, J. Cioslowski, 
 and D. J. Fox, Gaussian, Inc., Wallingford CT, 2009.
 
 ******************************************
 Gaussian 09:  EM64L-G09RevA.02 11-Jun-2009
                14-Mar-2022 
 ******************************************
 %nproc=8
 Will use up to    8 processors via shared memory.
 %Mem=4GB
 ----------------------------------------------------------------------
 #P B3LYP/6-31G(d,p) # Opt=tight SCRF=(Solvent=Water) # Gfinput IOP(6/7
 =3) Pop=full Density Test # Units(Ang,Deg)
 ----------------------------------------------------------------------
 1/7=10,14=-1,18=20,19=15,26=3,38=1/1,3;
 2/9=110,12=2,17=6,18=5,40=1/2;
 3/5=1,6=6,7=101,11=2,16=1,24=10,25=1,30=1,70=2201,71=1,72=1,74=-5/1,2,3;
 4//1;
 5/5=2,38=5,53=1/2;
 6/7=3,22=-1,28=1/1;
 7//1,2,3,16;
 1/7=10,14=-1,18=20,19=15/3(2);
 2/9=110/2;
 99//99;
 2/9=110/2;
 3/5=1,6=6,7=101,11=2,16=1,25=1,30=1,70=2205,71=1,72=1,74=-5/1,2,3;
 4/5=5,16=3/1;
 5/5=2,38=5,53=1/2;
 7//1,2,3,16;
 1/7=10,14=-1,18=20,19=15/3(-5);
 2/9=110/2;
 6/7=3,19=2,22=-1,28=1/1;
 99/9=1/99;
 Leave Link    1 at Mon Mar 14 13:51:47 2022, MaxMem=  536870912 cpu:       0.4
 (Enter /opt/gridunesp/dist/gaussian/g09/l101.exe)
 ---------
 peg-6.xyz
 ---------
 Symbolic Z-matrix:
 Charge =  0 Multiplicity = 1
 O                     0.        0.        0. 
 H                     0.        0.        0.947 
 C                     1.30108   0.       -0.45999 
 C                     1.30108   0.       -1.95999 
 H                     1.80548   0.87365  -0.10333 
 H                     1.80548  -0.87365  -0.10333 
 C                     2.7153    0.       -2.45999 
 H                     0.79668  -0.87365  -2.31666 
 H                     0.79668   0.87365  -2.31666 
 C                     2.7153    0.       -3.95999 
 H                     3.2197    0.87365  -2.10332 
 H                     3.2197   -0.87365  -2.10332 
 C                     4.12952   0.       -4.45998 
 H                     2.2109   -0.87365  -4.31666 
 H                     2.2109    0.87365  -4.31666 
 C                     4.12953   0.       -5.95998 
 H                     4.63392   0.87365  -4.10332 
 H                     4.63392  -0.87365  -4.10332 
 C                     5.54374   0.       -6.45998 
 H                     3.62513  -0.87365  -6.31665 
 H                     3.62513   0.87365  -6.31665 
 O                     5.54375   0.       -7.83998 
 H                     6.04814   0.87365  -6.10331 
 H                     6.04814  -0.87365  -6.10331 
 H                     6.43659   0.       -8.15564 
 
 NAtoms=     25 NQM=     25 NQMF=      0 NMic=      0 NMicF=      0 NTot=     25.
                    Isotopes and Nuclear Properties:
 (Nuclear quadrupole moments (NQMom) in fm**2, nuclear magnetic moments (NMagM)
  in nuclear magnetons)

  Atom         1           2           3           4           5           6           7           8           9          10
 IAtWgt=          16           1          12          12           1           1          12           1           1          12
 AtmWgt=  15.9949146   1.0078250  12.0000000  12.0000000   1.0078250   1.0078250  12.0000000   1.0078250   1.0078250  12.0000000
 NucSpn=           0           1           0           0           1           1           0           1           1           0
 AtZEff=   0.0000000   0.0000000   0.0000000   0.0000000   0.0000000   0.0000000   0.0000000   0.0000000   0.0000000   0.0000000
 NQMom=    0.0000000   0.0000000   0.0000000   0.0000000   0.0000000   0.0000000   0.0000000   0.0000000   0.0000000   0.0000000
 NMagM=    0.0000000   2.7928460   0.0000000   0.0000000   2.7928460   2.7928460   0.0000000   2.7928460   2.7928460   0.0000000

  Atom        11          12          13          14          15          16          17          18          19          20
 IAtWgt=           1           1          12           1           1          12           1           1          12           1
 AtmWgt=   1.0078250   1.0078250  12.0000000   1.0078250   1.0078250  12.0000000   1.0078250   1.0078250  12.0000000   1.0078250
 NucSpn=           1           1           0           1           1           0           1           1           0           1
 AtZEff=   0.0000000   0.0000000   0.0000000   0.0000000   0.0000000   0.0000000   0.0000000   0.0000000   0.0000000   0.0000000
 NQMom=    0.0000000   0.0000000   0.0000000   0.0000000   0.0000000   0.0000000   0.0000000   0.0000000   0.0000000   0.0000000
 NMagM=    2.7928460   2.7928460   0.0000000   2.7928460   2.7928460   0.0000000   2.7928460   2.7928460   0.0000000   2.7928460

  Atom        21          22          23          24          25
 IAtWgt=           1          16           1           1           1
 AtmWgt=   1.0078250  15.9949146   1.0078250   1.0078250   1.0078250
 NucSpn=           1           0           1           1           1
 AtZEff=   0.0000000   0.0000000   0.0000000   0.0000000   0.0000000
 NQMom=    0.0000000   0.0000000   0.0000000   0.0000000   0.0000000
 NMagM=    2.7928460   0.0000000   2.7928460   2.7928460   2.7928460
 Leave Link  101 at Mon Mar 14 13:51:47 2022, MaxMem=  536870912 cpu:       0.6
 (Enter /opt/gridunesp/dist/gaussian/g09/l103.exe)

 GradGradGradGradGradGradGradGradGradGradGradGradGradGradGradGradGradGrad
 Berny optimization.
 Initialization pass.
                           ----------------------------
                           !    Initial Parameters    !
                           ! (Angstroms and Degrees)  !
 --------------------------                            --------------------------
 ! Name  Definition              Value          Derivative Info.                !
 --------------------------------------------------------------------------------
 ! R1    R(1,2)                  0.947          estimate D2E/DX2                !
 ! R2    R(1,3)                  1.38           estimate D2E/DX2                !
 ! R3    R(3,4)                  1.5            estimate D2E/DX2                !
 ! R4    R(3,5)                  1.07           estimate D2E/DX2                !
 ! R5    R(3,6)                  1.07           estimate D2E/DX2                !
 ! R6    R(4,7)                  1.5            estimate D2E/DX2                !
 ! R7    R(4,8)                  1.07           estimate D2E/DX2                !
 ! R8    R(4,9)                  1.07           estimate D2E/DX2                !
 ! R9    R(7,10)                 1.5            estimate D2E/DX2                !
 ! R10   R(7,11)                 1.07           estimate D2E/DX2                !
 ! R11   R(7,12)                 1.07           estimate D2E/DX2                !
 ! R12   R(10,13)                1.5            estimate D2E/DX2                !
 ! R13   R(10,14)                1.07           estimate D2E/DX2                !
 ! R14   R(10,15)                1.07           estimate D2E/DX2                !
 ! R15   R(13,16)                1.5            estimate D2E/DX2                !
 ! R16   R(13,17)                1.07           estimate D2E/DX2                !
 ! R17   R(13,18)                1.07           estimate D2E/DX2                !
 ! R18   R(16,19)                1.5            estimate D2E/DX2                !
 ! R19   R(16,20)                1.07           estimate D2E/DX2                !
 ! R20   R(16,21)                1.07           estimate D2E/DX2                !
 ! R21   R(19,22)                1.38           estimate D2E/DX2                !
 ! R22   R(19,23)                1.07           estimate D2E/DX2                !
 ! R23   R(19,24)                1.07           estimate D2E/DX2                !
 ! R24   R(22,25)                0.947          estimate D2E/DX2                !
 ! A1    A(2,1,3)              109.4708         estimate D2E/DX2                !
 ! A2    A(1,3,4)              109.4708         estimate D2E/DX2                !
 ! A3    A(1,3,5)              109.4715         estimate D2E/DX2                !
 ! A4    A(1,3,6)              109.4715         estimate D2E/DX2                !
 ! A5    A(4,3,5)              109.4709         estimate D2E/DX2                !
 ! A6    A(4,3,6)              109.4709         estimate D2E/DX2                !
 ! A7    A(5,3,6)              109.4717         estimate D2E/DX2                !
 ! A8    A(3,4,7)              109.4711         estimate D2E/DX2                !
 ! A9    A(3,4,8)              109.4714         estimate D2E/DX2                !
 ! A10   A(3,4,9)              109.4714         estimate D2E/DX2                !
 ! A11   A(7,4,8)              109.4711         estimate D2E/DX2                !
 ! A12   A(7,4,9)              109.4711         estimate D2E/DX2                !
 ! A13   A(8,4,9)              109.4712         estimate D2E/DX2                !
 ! A14   A(4,7,10)             109.4711         estimate D2E/DX2                !
 ! A15   A(4,7,11)             109.4711         estimate D2E/DX2                !
 ! A16   A(4,7,12)             109.4711         estimate D2E/DX2                !
 ! A17   A(10,7,11)            109.4714         estimate D2E/DX2                !
 ! A18   A(10,7,12)            109.4714         estimate D2E/DX2                !
 ! A19   A(11,7,12)            109.4712         estimate D2E/DX2                !
 ! A20   A(7,10,13)            109.4708         estimate D2E/DX2                !
 ! A21   A(7,10,14)            109.4714         estimate D2E/DX2                !
 ! A22   A(7,10,15)            109.4714         estimate D2E/DX2                !
 ! A23   A(13,10,14)           109.4713         estimate D2E/DX2                !
 ! A24   A(13,10,15)           109.4713         estimate D2E/DX2                !
 ! A25   A(14,10,15)           109.4712         estimate D2E/DX2                !
 ! A26   A(10,13,16)           109.4712         estimate D2E/DX2                !
 ! A27   A(10,13,17)           109.4715         estimate D2E/DX2                !
 ! A28   A(10,13,18)           109.4715         estimate D2E/DX2                !
 ! A29   A(16,13,17)           109.4707         estimate D2E/DX2                !
 ! A30   A(16,13,18)           109.4707         estimate D2E/DX2                !
 ! A31   A(17,13,18)           109.4717         estimate D2E/DX2                !
 ! A32   A(13,16,19)           109.4716         estimate D2E/DX2                !
 ! A33   A(13,16,20)           109.4712         estimate D2E/DX2                !
 ! A34   A(13,16,21)           109.4712         estimate D2E/DX2                !
 ! A35   A(19,16,20)           109.471          estimate D2E/DX2                !
 ! A36   A(19,16,21)           109.471          estimate D2E/DX2                !
 ! A37   A(20,16,21)           109.4712         estimate D2E/DX2                !
 ! A38   A(16,19,22)           109.4717         estimate D2E/DX2                !
 ! A39   A(16,19,23)           109.471          estimate D2E/DX2                !
 ! A40   A(16,19,24)           109.471          estimate D2E/DX2                !
 ! A41   A(22,19,23)           109.4712         estimate D2E/DX2                !
 ! A42   A(22,19,24)           109.4712         estimate D2E/DX2                !
 ! A43   A(23,19,24)           109.4712         estimate D2E/DX2                !
 ! A44   A(19,22,25)           109.4713         estimate D2E/DX2                !
 ! D1    D(2,1,3,4)            180.0            estimate D2E/DX2                !
 ! D2    D(2,1,3,5)            -60.0005         estimate D2E/DX2                !
 ! D3    D(2,1,3,6)             60.0005         estimate D2E/DX2                !
 ! D4    D(1,3,4,7)            180.0            estimate D2E/DX2                !
 ! D5    D(1,3,4,8)            -60.0001         estimate D2E/DX2                !
 ! D6    D(1,3,4,9)             60.0001         estimate D2E/DX2                !
 ! D7    D(5,3,4,7)             60.0001         estimate D2E/DX2                !
 ! D8    D(5,3,4,8)            180.0            estimate D2E/DX2                !
 ! D9    D(5,3,4,9)            -59.9998         estimate D2E/DX2                !
 ! D10   D(6,3,4,7)            -60.0001         estimate D2E/DX2                !
 ! D11   D(6,3,4,8)             59.9998         estimate D2E/DX2                !
 ! D12   D(6,3,4,9)            180.0            estimate D2E/DX2                !
 ! D13   D(3,4,7,10)           180.0            estimate D2E/DX2                !
 ! D14   D(3,4,7,11)           -59.9999         estimate D2E/DX2                !
 ! D15   D(3,4,7,12)            59.9999         estimate D2E/DX2                !
 ! D16   D(8,4,7,10)            59.9999         estimate D2E/DX2                !
 ! D17   D(8,4,7,11)           180.0            estimate D2E/DX2                !
 ! D18   D(8,4,7,12)           -60.0002         estimate D2E/DX2                !
 ! D19   D(9,4,7,10)           -59.9999         estimate D2E/DX2                !
 ! D20   D(9,4,7,11)            60.0002         estimate D2E/DX2                !
 ! D21   D(9,4,7,12)           180.0            estimate D2E/DX2                !
 ! D22   D(4,7,10,13)          180.0            estimate D2E/DX2                !
 ! D23   D(4,7,10,14)          -60.0001         estimate D2E/DX2                !
 ! D24   D(4,7,10,15)           60.0001         estimate D2E/DX2                !
 ! D25   D(11,7,10,13)          60.0001         estimate D2E/DX2                !
 ! D26   D(11,7,10,14)         180.0            estimate D2E/DX2                !
 ! D27   D(11,7,10,15)         -59.9998         estimate D2E/DX2                !
 ! D28   D(12,7,10,13)         -60.0001         estimate D2E/DX2                !
 ! D29   D(12,7,10,14)          59.9998         estimate D2E/DX2                !
 ! D30   D(12,7,10,15)         180.0            estimate D2E/DX2                !
 ! D31   D(7,10,13,16)         180.0            estimate D2E/DX2                !
 ! D32   D(7,10,13,17)         -60.0005         estimate D2E/DX2                !
 ! D33   D(7,10,13,18)          60.0005         estimate D2E/DX2                !
 ! D34   D(14,10,13,16)         60.0            estimate D2E/DX2                !
 ! D35   D(14,10,13,17)        179.9995         estimate D2E/DX2                !
 ! D36   D(14,10,13,18)        -59.9996         estimate D2E/DX2                !
 ! D37   D(15,10,13,16)        -60.0            estimate D2E/DX2                !
 ! D38   D(15,10,13,17)         59.9996         estimate D2E/DX2                !
 ! D39   D(15,10,13,18)       -179.9995         estimate D2E/DX2                !
 ! D40   D(10,13,16,19)        180.0            estimate D2E/DX2                !
 ! D41   D(10,13,16,20)        -60.0            estimate D2E/DX2                !
 ! D42   D(10,13,16,21)         60.0            estimate D2E/DX2                !
 ! D43   D(17,13,16,19)         60.0            estimate D2E/DX2                !
 ! D44   D(17,13,16,20)        180.0            estimate D2E/DX2                !
 ! D45   D(17,13,16,21)        -60.0            estimate D2E/DX2                !
 ! D46   D(18,13,16,19)        -60.0            estimate D2E/DX2                !
 ! D47   D(18,13,16,20)         60.0            estimate D2E/DX2                !
 ! D48   D(18,13,16,21)        180.0            estimate D2E/DX2                !
 ! D49   D(13,16,19,22)        180.0            estimate D2E/DX2                !
 ! D50   D(13,16,19,23)        -59.9998         estimate D2E/DX2                !
 ! D51   D(13,16,19,24)         59.9998         estimate D2E/DX2                !
 ! D52   D(20,16,19,22)         59.9998         estimate D2E/DX2                !
 ! D53   D(20,16,19,23)        180.0            estimate D2E/DX2                !
 ! D54   D(20,16,19,24)        -60.0003         estimate D2E/DX2                !
 ! D55   D(21,16,19,22)        -59.9998         estimate D2E/DX2                !
 ! D56   D(21,16,19,23)         60.0003         estimate D2E/DX2                !
 ! D57   D(21,16,19,24)        180.0            estimate D2E/DX2                !
 ! D58   D(16,19,22,25)        180.0            estimate D2E/DX2                !
 ! D59   D(23,19,22,25)         60.0            estimate D2E/DX2                !
 ! D60   D(24,19,22,25)        -60.0            estimate D2E/DX2                !
 --------------------------------------------------------------------------------
 Trust Radius=3.00D-01 FncErr=1.00D-07 GrdErr=1.00D-06
 Number of steps in this run= 138 maximum allowed number of steps= 150.
 GradGradGradGradGradGradGradGradGradGradGradGradGradGradGradGradGradGrad

 Leave Link  103 at Mon Mar 14 13:51:47 2022, MaxMem=  536870912 cpu:       0.1
 (Enter /opt/gridunesp/dist/gaussian/g09/l202.exe)
                          Input orientation:                          
 ---------------------------------------------------------------------
 Center     Atomic      Atomic             Coordinates (Angstroms)
 Number     Number       Type             X           Y           Z
 ---------------------------------------------------------------------
      1          8           0        0.000000    0.000000    0.000000
      2          1           0        0.000000    0.000000    0.947000
      3          6           0        1.301080    0.000000   -0.459990
      4          6           0        1.301080    0.000000   -1.959990
      5          1           0        1.805480    0.873650   -0.103330
      6          1           0        1.805480   -0.873650   -0.103330
      7          6           0        2.715300    0.000000   -2.459990
      8          1           0        0.796680   -0.873650   -2.316660
      9          1           0        0.796680    0.873650   -2.316660
     10          6           0        2.715300    0.000000   -3.959990
     11          1           0        3.219700    0.873650   -2.103320
     12          1           0        3.219700   -0.873650   -2.103320
     13          6           0        4.129520    0.000000   -4.459980
     14          1           0        2.210900   -0.873650   -4.316660
     15          1           0        2.210900    0.873650   -4.316660
     16          6           0        4.129530    0.000000   -5.959980
     17          1           0        4.633920    0.873650   -4.103320
     18          1           0        4.633920   -0.873650   -4.103320
     19          6           0        5.543740    0.000000   -6.459980
     20          1           0        3.625130   -0.873650   -6.316650
     21          1           0        3.625130    0.873650   -6.316650
     22          8           0        5.543750    0.000000   -7.839980
     23          1           0        6.048140    0.873650   -6.103310
     24          1           0        6.048140   -0.873650   -6.103310
     25          1           0        6.436590    0.000000   -8.155640
 ---------------------------------------------------------------------
                    Distance matrix (angstroms):
                    1          2          3          4          5
     1  O    0.000000
     2  H    0.947000   0.000000
     3  C    1.380000   1.916359   0.000000
     4  C    2.352524   3.184870   1.500000   0.000000
     5  H    2.008407   2.264115   1.069995   2.113024   0.000000
     6  H    2.008407   2.264115   1.069995   2.113024   1.747300
     7  C    3.663933   4.356654   2.449493   1.500006   2.672991
     8  H    2.600938   3.471230   2.113033   1.069999   2.994923
     9  H    2.600938   3.471230   2.113033   1.069999   2.432387
    10  C    4.801497   5.608155   3.774920   2.449493   4.057692
    11  H    3.943816   4.520419   2.672995   2.113033   2.449485
    12  H    3.943816   4.520419   2.672995   2.113033   3.008826
    13  C    6.078187   6.803556   4.898979   3.774920   5.014462
    14  H    4.927971   5.775592   4.057701   2.673000   4.579255
    15  H    4.927971   5.775592   4.057701   2.673000   4.232790
    16  C    7.250819   8.047322   6.184660   4.898985   6.361197
    17  H    6.250897   6.909574   5.014473   4.057703   4.898979
    18  H    6.250897   6.909574   5.014473   4.057703   5.201255
    19  C    8.512602   9.251833   7.348472   6.184664   7.425958
    20  H    7.335182   8.164891   6.361206   5.014475   6.705932
    21  H    7.335182   8.164891   6.361206   5.014475   6.474293
    22  O    9.602002  10.389619   8.512608   7.250830   8.636763
    23  H    8.636762   9.330066   7.425961   6.361206   7.348464
    24  H    8.636762   9.330066   7.425961   6.361206   7.553342
    25  H   10.389618  11.148441   9.251837   8.047331   9.330066
                    6          7          8          9         10
     6  H    0.000000
     7  C    2.672991   0.000000
     8  H    2.432387   2.113033   0.000000
     9  H    2.994923   2.113033   1.747300   0.000000
    10  C    4.057692   1.500000   2.672995   2.672995   0.000000
    11  H    3.008826   1.069999   2.994929   2.432394   2.113033
    12  H    2.449485   1.069999   2.432394   2.994929   2.113033
    13  C    5.014462   2.449485   4.057697   4.057697   1.500003
    14  H    4.232790   2.113033   2.449493   3.008833   1.069999
    15  H    4.579255   2.113033   3.008833   2.449493   1.069999
    16  C    6.361197   3.774914   5.014472   5.014472   2.449491
    17  H    5.201255   2.672995   4.579260   4.232796   2.113033
    18  H    4.898979   2.672995   4.232796   4.579260   2.113033
    19  C    7.425958   4.898979   6.361206   6.361206   3.774920
    20  H    6.474293   4.057694   4.898985   5.201260   2.672995
    21  H    6.705932   4.057694   5.201260   4.898985   2.672995
    22  O    8.636763   6.078192   7.335189   7.335189   4.801505
    23  H    7.553342   5.014466   6.705938   6.474299   4.057697
    24  H    7.348464   5.014466   6.474299   6.705938   4.057697
    25  H    9.330066   6.803560   8.164897   8.164897   5.608162
                   11         12         13         14         15
    11  H    0.000000
    12  H    1.747300   0.000000
    13  C    2.672991   2.672991   0.000000
    14  H    2.994930   2.432396   2.113033   0.000000
    15  H    2.432396   2.994930   2.113033   1.747300   0.000000
    16  C    4.057694   4.057694   1.500000   2.672996   2.672996
    17  H    2.449493   3.008833   1.069995   2.994929   2.432394
    18  H    3.008833   2.449493   1.069995   2.432394   2.994929
    19  C    5.014470   5.014470   2.449493   4.057697   4.057697
    20  H    4.579255   4.232791   2.113030   2.449491   3.008831
    21  H    4.232791   4.579255   2.113030   3.008831   2.449491
    22  O    6.250899   6.250899   3.663939   4.927975   4.927975
    23  H    4.898979   5.201255   2.672995   4.579256   4.232792
    24  H    5.201255   4.898979   2.672995   4.232792   4.579256
    25  H    6.909575   6.909575   4.356659   5.775594   5.775594
                   16         17         18         19         20
    16  C    0.000000
    17  H    2.113022   0.000000
    18  H    2.113022   1.747300   0.000000
    19  C    1.499997   2.672991   2.672991   0.000000
    20  H    1.069999   2.994920   2.432383   2.113024   0.000000
    21  H    1.069999   2.432383   2.994920   2.113024   1.747300
    22  O    2.352534   3.943816   3.943816   1.380000   2.600942
    23  H    2.113024   2.449485   3.008826   1.069999   2.994920
    24  H    2.113024   3.008826   2.449485   1.069999   2.432384
    25  H    3.184878   4.520418   4.520418   1.916362   3.471233
                   21         22         23         24         25
    21  H    0.000000
    22  O    2.600942   0.000000
    23  H    2.432384   2.008406   0.000000
    24  H    2.994920   2.008406   1.747300   0.000000
    25  H    3.471233   0.946998   2.264115   2.264115   0.000000
 Stoichiometry    C7H16O2
 Framework group  CS[SG(C7H2O2),X(H14)]
 Deg. of freedom    40
 Full point group                 CS      NOp   2
 Largest Abelian subgroup         CS      NOp   2
 Largest concise Abelian subgroup CS      NOp   2
                         Standard orientation:                         
 ---------------------------------------------------------------------
 Center     Atomic      Atomic             Coordinates (Angstroms)
 Number     Number       Type             X           Y           Z
 ---------------------------------------------------------------------
      1          8           0       -0.353550   -4.800998    0.000000
      2          1           0        0.193203   -5.574219    0.000000
      3          6           0        0.443200   -3.674237    0.000000
      4          6           0       -0.422828   -2.449494    0.000000
      5          1           0        1.060959   -3.674232    0.873650
      6          1           0        1.060959   -3.674232   -0.873650
      7          6           0        0.443200   -1.224744    0.000000
      8          1           0       -1.040593   -2.449491   -0.873650
      9          1           0       -1.040593   -2.449491    0.873650
     10          6           0       -0.422828    0.000000    0.000000
     11          1           0        1.060964   -1.224747    0.873650
     12          1           0        1.060964   -1.224747   -0.873650
     13          6           0        0.443206    1.224741    0.000000
     14          1           0       -1.040593    0.000002   -0.873650
     15          1           0       -1.040593    0.000002    0.873650
     16          6           0       -0.422814    2.449490    0.000000
     17          1           0        1.060964    1.224747    0.873650
     18          1           0        1.060964    1.224747   -0.873650
     19          6           0        0.443206    3.674235    0.000000
     20          1           0       -1.040579    2.449493   -0.873650
     21          1           0       -1.040579    2.449493    0.873650
     22          8           0       -0.353532    4.801004    0.000000
     23          1           0        1.060970    3.674232    0.873650
     24          1           0        1.060970    3.674232   -0.873650
     25          1           0        0.193221    5.574222    0.000000
 ---------------------------------------------------------------------
 Rotational constants (GHZ):     10.9201157      0.3611371      0.3548633
 Leave Link  202 at Mon Mar 14 13:51:47 2022, MaxMem=  536870912 cpu:       0.0
 (Enter /opt/gridunesp/dist/gaussian/g09/l301.exe)
 Standard basis: 6-31G(d,p) (6D, 7F)
 Ernie: Thresh=  0.10000D-02 Tol=  0.10000D-05 Strict=F.
 AO basis set in the form of general basis input (Overlap normalization):
      1 0
 S   6 1.00       0.000000000000
      0.5484671660D+04  0.1831074430D-02
      0.8252349460D+03  0.1395017220D-01
      0.1880469580D+03  0.6844507810D-01
      0.5296450000D+02  0.2327143360D+00
      0.1689757040D+02  0.4701928980D+00
      0.5799635340D+01  0.3585208530D+00
 SP   3 1.00       0.000000000000
      0.1553961625D+02 -0.1107775495D+00  0.7087426823D-01
      0.3599933586D+01 -0.1480262627D+00  0.3397528391D+00
      0.1013761750D+01  0.1130767015D+01  0.7271585773D+00
 SP   1 1.00       0.000000000000
      0.2700058226D+00  0.1000000000D+01  0.1000000000D+01
 D   1 1.00       0.000000000000
      0.8000000000D+00  0.1000000000D+01
 ****
      2 0
 S   3 1.00       0.000000000000
      0.1873113696D+02  0.3349460434D-01
      0.2825394365D+01  0.2347269535D+00
      0.6401216923D+00  0.8137573261D+00
 S   1 1.00       0.000000000000
      0.1612777588D+00  0.1000000000D+01
 P   1 1.00       0.000000000000
      0.1100000000D+01  0.1000000000D+01
 ****
      3 0
 S   6 1.00       0.000000000000
      0.3047524880D+04  0.1834737132D-02
      0.4573695180D+03  0.1403732281D-01
      0.1039486850D+03  0.6884262226D-01
      0.2921015530D+02  0.2321844432D+00
      0.9286662960D+01  0.4679413484D+00
      0.3163926960D+01  0.3623119853D+00
 SP   3 1.00       0.000000000000
      0.7868272350D+01 -0.1193324198D+00  0.6899906659D-01
      0.1881288540D+01 -0.1608541517D+00  0.3164239610D+00
      0.5442492580D+00  0.1143456438D+01  0.7443082909D+00
 SP   1 1.00       0.000000000000
      0.1687144782D+00  0.1000000000D+01  0.1000000000D+01
 D   1 1.00       0.000000000000
      0.8000000000D+00  0.1000000000D+01
 ****
      4 0
 S   6 1.00       0.000000000000
      0.3047524880D+04  0.1834737132D-02
      0.4573695180D+03  0.1403732281D-01
      0.1039486850D+03  0.6884262226D-01
      0.2921015530D+02  0.2321844432D+00
      0.9286662960D+01  0.4679413484D+00
      0.3163926960D+01  0.3623119853D+00
 SP   3 1.00       0.000000000000
      0.7868272350D+01 -0.1193324198D+00  0.6899906659D-01
      0.1881288540D+01 -0.1608541517D+00  0.3164239610D+00
      0.5442492580D+00  0.1143456438D+01  0.7443082909D+00
 SP   1 1.00       0.000000000000
      0.1687144782D+00  0.1000000000D+01  0.1000000000D+01
 D   1 1.00       0.000000000000
      0.8000000000D+00  0.1000000000D+01
 ****
      5 0
 S   3 1.00       0.000000000000
      0.1873113696D+02  0.3349460434D-01
      0.2825394365D+01  0.2347269535D+00
      0.6401216923D+00  0.8137573261D+00
 S   1 1.00       0.000000000000
      0.1612777588D+00  0.1000000000D+01
 P   1 1.00       0.000000000000
      0.1100000000D+01  0.1000000000D+01
 ****
      6 0
 S   3 1.00       0.000000000000
      0.1873113696D+02  0.3349460434D-01
      0.2825394365D+01  0.2347269535D+00
      0.6401216923D+00  0.8137573261D+00
 S   1 1.00       0.000000000000
      0.1612777588D+00  0.1000000000D+01
 P   1 1.00       0.000000000000
      0.1100000000D+01  0.1000000000D+01
 ****
      7 0
 S   6 1.00       0.000000000000
      0.3047524880D+04  0.1834737132D-02
      0.4573695180D+03  0.1403732281D-01
      0.1039486850D+03  0.6884262226D-01
      0.2921015530D+02  0.2321844432D+00
      0.9286662960D+01  0.4679413484D+00
      0.3163926960D+01  0.3623119853D+00
 SP   3 1.00       0.000000000000
      0.7868272350D+01 -0.1193324198D+00  0.6899906659D-01
      0.1881288540D+01 -0.1608541517D+00  0.3164239610D+00
      0.5442492580D+00  0.1143456438D+01  0.7443082909D+00
 SP   1 1.00       0.000000000000
      0.1687144782D+00  0.1000000000D+01  0.1000000000D+01
 D   1 1.00       0.000000000000
      0.8000000000D+00  0.1000000000D+01
 ****
      8 0
 S   3 1.00       0.000000000000
      0.1873113696D+02  0.3349460434D-01
      0.2825394365D+01  0.2347269535D+00
      0.6401216923D+00  0.8137573261D+00
 S   1 1.00       0.000000000000
      0.1612777588D+00  0.1000000000D+01
 P   1 1.00       0.000000000000
      0.1100000000D+01  0.1000000000D+01
 ****
      9 0
 S   3 1.00       0.000000000000
      0.1873113696D+02  0.3349460434D-01
      0.2825394365D+01  0.2347269535D+00
      0.6401216923D+00  0.8137573261D+00
 S   1 1.00       0.000000000000
      0.1612777588D+00  0.1000000000D+01
 P   1 1.00       0.000000000000
      0.1100000000D+01  0.1000000000D+01
 ****
     10 0
 S   6 1.00       0.000000000000
      0.3047524880D+04  0.1834737132D-02
      0.4573695180D+03  0.1403732281D-01
      0.1039486850D+03  0.6884262226D-01
      0.2921015530D+02  0.2321844432D+00
      0.9286662960D+01  0.4679413484D+00
      0.3163926960D+01  0.3623119853D+00
 SP   3 1.00       0.000000000000
      0.7868272350D+01 -0.1193324198D+00  0.6899906659D-01
      0.1881288540D+01 -0.1608541517D+00  0.3164239610D+00
      0.5442492580D+00  0.1143456438D+01  0.7443082909D+00
 SP   1 1.00       0.000000000000
      0.1687144782D+00  0.1000000000D+01  0.1000000000D+01
 D   1 1.00       0.000000000000
      0.8000000000D+00  0.1000000000D+01
 ****
     11 0
 S   3 1.00       0.000000000000
      0.1873113696D+02  0.3349460434D-01
      0.2825394365D+01  0.2347269535D+00
      0.6401216923D+00  0.8137573261D+00
 S   1 1.00       0.000000000000
      0.1612777588D+00  0.1000000000D+01
 P   1 1.00       0.000000000000
      0.1100000000D+01  0.1000000000D+01
 ****
     12 0
 S   3 1.00       0.000000000000
      0.1873113696D+02  0.3349460434D-01
      0.2825394365D+01  0.2347269535D+00
      0.6401216923D+00  0.8137573261D+00
 S   1 1.00       0.000000000000
      0.1612777588D+00  0.1000000000D+01
 P   1 1.00       0.000000000000
      0.1100000000D+01  0.1000000000D+01
 ****
     13 0
 S   6 1.00       0.000000000000
      0.3047524880D+04  0.1834737132D-02
      0.4573695180D+03  0.1403732281D-01
      0.1039486850D+03  0.6884262226D-01
      0.2921015530D+02  0.2321844432D+00
      0.9286662960D+01  0.4679413484D+00
      0.3163926960D+01  0.3623119853D+00
 SP   3 1.00       0.000000000000
      0.7868272350D+01 -0.1193324198D+00  0.6899906659D-01
      0.1881288540D+01 -0.1608541517D+00  0.3164239610D+00
      0.5442492580D+00  0.1143456438D+01  0.7443082909D+00
 SP   1 1.00       0.000000000000
      0.1687144782D+00  0.1000000000D+01  0.1000000000D+01
 D   1 1.00       0.000000000000
      0.8000000000D+00  0.1000000000D+01
 ****
     14 0
 S   3 1.00       0.000000000000
      0.1873113696D+02  0.3349460434D-01
      0.2825394365D+01  0.2347269535D+00
      0.6401216923D+00  0.8137573261D+00
 S   1 1.00       0.000000000000
      0.1612777588D+00  0.1000000000D+01
 P   1 1.00       0.000000000000
      0.1100000000D+01  0.1000000000D+01
 ****
     15 0
 S   3 1.00       0.000000000000
      0.1873113696D+02  0.3349460434D-01
      0.2825394365D+01  0.2347269535D+00
      0.6401216923D+00  0.8137573261D+00
 S   1 1.00       0.000000000000
      0.1612777588D+00  0.1000000000D+01
 P   1 1.00       0.000000000000
      0.1100000000D+01  0.1000000000D+01
 ****
     16 0
 S   6 1.00       0.000000000000
      0.3047524880D+04  0.1834737132D-02
      0.4573695180D+03  0.1403732281D-01
      0.1039486850D+03  0.6884262226D-01
      0.2921015530D+02  0.2321844432D+00
      0.9286662960D+01  0.4679413484D+00
      0.3163926960D+01  0.3623119853D+00
 SP   3 1.00       0.000000000000
      0.7868272350D+01 -0.1193324198D+00  0.6899906659D-01
      0.1881288540D+01 -0.1608541517D+00  0.3164239610D+00
      0.5442492580D+00  0.1143456438D+01  0.7443082909D+00
 SP   1 1.00       0.000000000000
      0.1687144782D+00  0.1000000000D+01  0.1000000000D+01
 D   1 1.00       0.000000000000
      0.8000000000D+00  0.1000000000D+01
 ****
     17 0
 S   3 1.00       0.000000000000
      0.1873113696D+02  0.3349460434D-01
      0.2825394365D+01  0.2347269535D+00
      0.6401216923D+00  0.8137573261D+00
 S   1 1.00       0.000000000000
      0.1612777588D+00  0.1000000000D+01
 P   1 1.00       0.000000000000
      0.1100000000D+01  0.1000000000D+01
 ****
     18 0
 S   3 1.00       0.000000000000
      0.1873113696D+02  0.3349460434D-01
      0.2825394365D+01  0.2347269535D+00
      0.6401216923D+00  0.8137573261D+00
 S   1 1.00       0.000000000000
      0.1612777588D+00  0.1000000000D+01
 P   1 1.00       0.000000000000
      0.1100000000D+01  0.1000000000D+01
 ****
     19 0
 S   6 1.00       0.000000000000
      0.3047524880D+04  0.1834737132D-02
      0.4573695180D+03  0.1403732281D-01
      0.1039486850D+03  0.6884262226D-01
      0.2921015530D+02  0.2321844432D+00
      0.9286662960D+01  0.4679413484D+00
      0.3163926960D+01  0.3623119853D+00
 SP   3 1.00       0.000000000000
      0.7868272350D+01 -0.1193324198D+00  0.6899906659D-01
      0.1881288540D+01 -0.1608541517D+00  0.3164239610D+00
      0.5442492580D+00  0.1143456438D+01  0.7443082909D+00
 SP   1 1.00       0.000000000000
      0.1687144782D+00  0.1000000000D+01  0.1000000000D+01
 D   1 1.00       0.000000000000
      0.8000000000D+00  0.1000000000D+01
 ****
     20 0
 S   3 1.00       0.000000000000
      0.1873113696D+02  0.3349460434D-01
      0.2825394365D+01  0.2347269535D+00
      0.6401216923D+00  0.8137573261D+00
 S   1 1.00       0.000000000000
      0.1612777588D+00  0.1000000000D+01
 P   1 1.00       0.000000000000
      0.1100000000D+01  0.1000000000D+01
 ****
     21 0
 S   3 1.00       0.000000000000
      0.1873113696D+02  0.3349460434D-01
      0.2825394365D+01  0.2347269535D+00
      0.6401216923D+00  0.8137573261D+00
 S   1 1.00       0.000000000000
      0.1612777588D+00  0.1000000000D+01
 P   1 1.00       0.000000000000
      0.1100000000D+01  0.1000000000D+01
 ****
     22 0
 S   6 1.00       0.000000000000
      0.5484671660D+04  0.1831074430D-02
      0.8252349460D+03  0.1395017220D-01
      0.1880469580D+03  0.6844507810D-01
      0.5296450000D+02  0.2327143360D+00
      0.1689757040D+02  0.4701928980D+00
      0.5799635340D+01  0.3585208530D+00
 SP   3 1.00       0.000000000000
      0.1553961625D+02 -0.1107775495D+00  0.7087426823D-01
      0.3599933586D+01 -0.1480262627D+00  0.3397528391D+00
      0.1013761750D+01  0.1130767015D+01  0.7271585773D+00
 SP   1 1.00       0.000000000000
      0.2700058226D+00  0.1000000000D+01  0.1000000000D+01
 D   1 1.00       0.000000000000
      0.8000000000D+00  0.1000000000D+01
 ****
     23 0
 S   3 1.00       0.000000000000
      0.1873113696D+02  0.3349460434D-01
      0.2825394365D+01  0.2347269535D+00
      0.6401216923D+00  0.8137573261D+00
 S   1 1.00       0.000000000000
      0.1612777588D+00  0.1000000000D+01
 P   1 1.00       0.000000000000
      0.1100000000D+01  0.1000000000D+01
 ****
     24 0
 S   3 1.00       0.000000000000
      0.1873113696D+02  0.3349460434D-01
      0.2825394365D+01  0.2347269535D+00
      0.6401216923D+00  0.8137573261D+00
 S   1 1.00       0.000000000000
      0.1612777588D+00  0.1000000000D+01
 P   1 1.00       0.000000000000
      0.1100000000D+01  0.1000000000D+01
 ****
     25 0
 S   3 1.00       0.000000000000
      0.1873113696D+02  0.3349460434D-01
      0.2825394365D+01  0.2347269535D+00
      0.6401216923D+00  0.8137573261D+00
 S   1 1.00       0.000000000000
      0.1612777588D+00  0.1000000000D+01
 P   1 1.00       0.000000000000
      0.1100000000D+01  0.1000000000D+01
 ****

 There are   142 symmetry adapted basis functions of A'  symmetry.
 There are    73 symmetry adapted basis functions of A"  symmetry.
 Integral buffers will be    131072 words long.
 Raffenetti 2 integral format.
 Two-electron integral symmetry is turned on.
   215 basis functions,   364 primitive gaussians,   215 cartesian basis functions
    37 alpha electrons       37 beta electrons
       nuclear repulsion energy       458.3985600062 Hartrees.
 IExCor=  402 DFT=T Ex+Corr=B3LYP ExCW=0 ScaHFX=  0.200000
 ScaDFX=  0.800000  0.720000  1.000000  0.810000 ScalE2=  1.000000  1.000000
 IRadAn=      0 IRanWt=     -1 IRanGd=            0 ICorTp=0
 NAtoms=   25 NActive=   25 NUniq=   18 SFac= 1.45D+00 NAtFMM=   80 NAOKFM=F Big=F
 ------------------------------------------------------------------------------
 Polarizable Continuum Model (PCM)
 =================================
 Model                : PCM.
 Atomic radii         : UFF (Universal Force Field).
 Polarization charges : Total charges.
 Charge compensation  : None.
 Solution method      : Matrix inversion.
 Cavity type          : Scaled VdW (van der Waals Surface) (Alpha=1.100).
 Cavity algorithm     : GePol (No added spheres)
                        Default sphere list used, NSphG=   25.
                        Lebedev-Laikov grids with approx.  5.0 points / Ang**2.
                        Smoothing algorithm: Karplus/York (Gamma=1.0000).
                        Polarization charges: spherical gaussians, with
                                              point-specific exponents (IZeta= 3).
                        Self-potential: point-specific (ISelfS= 7).
                        Self-field    : sphere-specific E.n sum rule (ISelfD= 2).
 1st derivatives      : Analytical E(r).r(x)/FMM algorithm (CHGder, D1EAlg=3).
                        Cavity 1st derivative terms included.
 Solvent              : Water, Eps=  78.355300 Eps(inf)=   1.777849
 ------------------------------------------------------------------------------
 GePol: Number of generator spheres                  =      25
 GePol: Total number of spheres                      =      25
 GePol: Number of exposed spheres                    =      25 (100.00%)
 GePol: Number of points                             =    1765
 GePol: Average weight of points                     =       0.13
 GePol: Minimum weight of points                     =   0.62D-05
 GePol: Maximum weight of points                     =    0.20577
 GePol: Number of points with low weight             =      74
 GePol: Fraction of low-weight points (<1% of avg)   =       4.19%
 GePol: Cavity surface area                          =    235.436 Ang**2
 GePol: Cavity volume                                =    226.581 Ang**3
 Leave Link  301 at Mon Mar 14 13:51:47 2022, MaxMem=  536870912 cpu:       0.4
 (Enter /opt/gridunesp/dist/gaussian/g09/l302.exe)
 NPDir=0 NMtPBC=     1 NCelOv=     1 NCel=       1 NClECP=     1 NCelD=      1
         NCelK=      1 NCelE2=     1 NClLst=     1 CellRange=     0.0.
 One-electron integrals computed using PRISM.
 One-electron integral symmetry used in STVInt
 NBasis=   215 RedAO= T  NBF=   142    73
 NBsUse=   215 1.00D-06 NBFU=   142    73
 Precomputing XC quadrature grid using
 IXCGrd= 2 IRadAn=           0 IRanWt=          -1 IRanGd=           0 AccXCQ= 1.00D-10.
 NRdTot=    1588 NPtTot=      202664 NUsed=      214118 NTot=      214150
 NSgBfM=   212   212   212   212   212 NAtAll=    25    25.
 Leave Link  302 at Mon Mar 14 13:51:48 2022, MaxMem=  536870912 cpu:       1.6
 (Enter /opt/gridunesp/dist/gaussian/g09/l303.exe)
 DipDrv:  MaxL=1.
 Leave Link  303 at Mon Mar 14 13:51:48 2022, MaxMem=  536870912 cpu:       0.3
 (Enter /opt/gridunesp/dist/gaussian/g09/l401.exe)
 Harris functional with IExCor=  402 diagonalized for initial guess.
 ExpMin= 1.61D-01 ExpMax= 5.48D+03 ExpMxC= 8.25D+02 IAcc=1 IRadAn=         1 AccDes= 0.00D+00
 HarFok:  IExCor=  402 AccDes= 0.00D+00 IRadAn=         1 IDoV= 1
 ScaDFX=  1.000000  1.000000  1.000000  1.000000
 FoFCou: FMM=F IPFlag=           0 FMFlag=      100000 FMFlg1=           0
         NFxFlg=           0 DoJE=T BraDBF=F KetDBF=T FulRan=T
         Omega=  0.000000  0.000000  1.000000  0.000000  0.000000 ICntrl=     500 IOpCl=  0
         NMat0=    1 NMatS0=    1 NMatT0=    0 NMatD0=    1 NMtDS0=    0 NMtDT0=    0
         I1Cent=           4 NGrid=           0.
 Petite list used in FoFCou.
 Harris En= -426.959619478803    
 Initial guess orbital symmetries:
       Occupied  (A') (A') (A') (A') (A') (A') (A') (A') (A') (A')
                 (A') (A') (A') (A') (A') (A') (A') (A') (A') (A')
                 (A") (A") (A') (A") (A') (A') (A") (A') (A") (A')
                 (A') (A") (A") (A') (A') (A") (A")
       Virtual   (A') (A') (A') (A') (A") (A') (A') (A") (A') (A')
                 (A') (A') (A') (A") (A') (A") (A") (A') (A") (A")
                 (A') (A') (A') (A') (A') (A') (A') (A') (A") (A")
                 (A") (A') (A') (A') (A") (A') (A') (A') (A") (A')
                 (A') (A') (A") (A") (A') (A") (A') (A") (A') (A")
                 (A') (A") (A') (A') (A') (A") (A') (A") (A') (A')
                 (A') (A") (A') (A') (A") (A') (A') (A") (A") (A')
                 (A') (A') (A') (A') (A') (A') (A') (A") (A') (A")
                 (A") (A") (A') (A") (A") (A") (A") (A') (A') (A')
                 (A') (A') (A') (A') (A') (A') (A") (A") (A') (A')
                 (A') (A") (A") (A") (A") (A') (A") (A") (A") (A')
                 (A") (A") (A') (A") (A") (A") (A") (A') (A') (A')
                 (A') (A') (A") (A') (A") (A') (A") (A') (A') (A')
                 (A') (A") (A') (A') (A") (A") (A') (A') (A") (A')
                 (A') (A") (A') (A") (A') (A") (A') (A') (A') (A')
                 (A') (A') (A') (A') (A") (A') (A') (A') (A') (A")
                 (A') (A") (A') (A') (A') (A") (A") (A") (A") (A')
                 (A') (A') (A') (A') (A') (A') (A') (A')
 The electronic state of the initial guess is 1-A'.
 Leave Link  401 at Mon Mar 14 13:51:48 2022, MaxMem=  536870912 cpu:       2.4
 (Enter /opt/gridunesp/dist/gaussian/g09/l502.exe)
 Closed shell SCF:
 Requested convergence on RMS density matrix=1.00D-08 within 128 cycles.
 Requested convergence on MAX density matrix=1.00D-06.
 Requested convergence on             energy=1.00D-06.
 No special actions if energy rises.
 Using DIIS extrapolation, IDIIS=  1040.
 Integral symmetry usage will be decided dynamically.
       213880 words used for storage of precomputed grid.
 Keep R1 ints in memory in canonical form, NReq=276656086.
 IEnd=      374359 IEndB=      374359 NGot=   536870912 MDV=   266963796
 LenX=   266963796 LenY=   266917130
 Symmetry not used in FoFDir.
 MinBra= 0 MaxBra= 2 Meth= 1.
 IRaf=       0 NMat=   1 IRICut=       1 DoRegI=T DoRafI=F ISym2E= 0 JSym2E=0.

 Cycle   1  Pass 1  IDiag  1:
 E= -426.453839977752    
 DIIS: error= 5.04D-02 at cycle   1 NSaved=   1.
 NSaved= 1 IEnMin= 1 EnMin= -426.453839977752     IErMin= 1 ErrMin= 5.04D-02
 ErrMax= 5.04D-02 EMaxC= 1.00D-01 BMatC= 3.66D-01 BMatP= 3.66D-01
 IDIUse=3 WtCom= 4.96D-01 WtEn= 5.04D-01
 Coeff-Com:  0.100D+01
 Coeff-En:   0.100D+01
 Coeff:      0.100D+01
 Gap=     0.321 Goal=   None    Shift=    0.000
 GapD=    0.321 DampG=1.000 DampE=0.500 DampFc=0.5000 IDamp=-1.
 Damping current iteration by 5.00D-01
 RMSDP=6.31D-03 MaxDP=1.38D-01              OVMax= 1.99D-01

 Cycle   2  Pass 1  IDiag  1:
 E= -426.620296641810     Delta-E=       -0.166456664059 Rises=F Damp=T
 DIIS: error= 8.43D-03 at cycle   2 NSaved=   2.
 NSaved= 2 IEnMin= 2 EnMin= -426.620296641810     IErMin= 2 ErrMin= 8.43D-03
 ErrMax= 8.43D-03 EMaxC= 1.00D-01 BMatC= 1.34D-02 BMatP= 3.66D-01
 IDIUse=3 WtCom= 9.16D-01 WtEn= 8.43D-02
 Coeff-Com:  0.761D-01 0.924D+00
 Coeff-En:   0.109D+00 0.891D+00
 Coeff:      0.789D-01 0.921D+00
 Gap=     0.357 Goal=   None    Shift=    0.000
 RMSDP=8.03D-04 MaxDP=1.51D-02 DE=-1.66D-01 OVMax= 9.42D-02

 Cycle   3  Pass 1  IDiag  1:
 E= -426.821841237019     Delta-E=       -0.201544595209 Rises=F Damp=F
 DIIS: error= 3.04D-03 at cycle   3 NSaved=   3.
 NSaved= 3 IEnMin= 3 EnMin= -426.821841237019     IErMin= 3 ErrMin= 3.04D-03
 ErrMax= 3.04D-03 EMaxC= 1.00D-01 BMatC= 2.37D-03 BMatP= 1.34D-02
 IDIUse=3 WtCom= 9.70D-01 WtEn= 3.04D-02
 Coeff-Com:  0.327D-02 0.243D+00 0.754D+00
 Coeff-En:   0.000D+00 0.000D+00 0.100D+01
 Coeff:      0.317D-02 0.236D+00 0.761D+00
 Gap=     0.348 Goal=   None    Shift=    0.000
 RMSDP=2.98D-04 MaxDP=1.02D-02 DE=-2.02D-01 OVMax= 1.10D-02

 Cycle   4  Pass 1  IDiag  1:
 E= -426.822651599271     Delta-E=       -0.000810362252 Rises=F Damp=F
 DIIS: error= 2.26D-03 at cycle   4 NSaved=   4.
 NSaved= 4 IEnMin= 4 EnMin= -426.822651599271     IErMin= 4 ErrMin= 2.26D-03
 ErrMax= 2.26D-03 EMaxC= 1.00D-01 BMatC= 1.28D-03 BMatP= 2.37D-03
 IDIUse=3 WtCom= 9.77D-01 WtEn= 2.26D-02
 Coeff-Com: -0.313D-02 0.425D-01 0.431D+00 0.530D+00
 Coeff-En:   0.000D+00 0.000D+00 0.362D+00 0.638D+00
 Coeff:     -0.306D-02 0.416D-01 0.429D+00 0.532D+00
 Gap=     0.351 Goal=   None    Shift=    0.000
 RMSDP=1.42D-04 MaxDP=4.44D-03 DE=-8.10D-04 OVMax= 4.64D-03

 Cycle   5  Pass 1  IDiag  1:
 E= -426.823641153270     Delta-E=       -0.000989553998 Rises=F Damp=F
 DIIS: error= 2.05D-04 at cycle   5 NSaved=   5.
 NSaved= 5 IEnMin= 5 EnMin= -426.823641153270     IErMin= 5 ErrMin= 2.05D-04
 ErrMax= 2.05D-04 EMaxC= 1.00D-01 BMatC= 9.32D-06 BMatP= 1.28D-03
 IDIUse=3 WtCom= 9.98D-01 WtEn= 2.05D-03
 Coeff-Com: -0.582D-03 0.274D-03 0.820D-01 0.144D+00 0.774D+00
 Coeff-En:   0.000D+00 0.000D+00 0.000D+00 0.000D+00 0.100D+01
 Coeff:     -0.581D-03 0.273D-03 0.818D-01 0.144D+00 0.774D+00
 Gap=     0.350 Goal=   None    Shift=    0.000
 RMSDP=1.51D-05 MaxDP=2.94D-04 DE=-9.90D-04 OVMax= 4.44D-04

 Cycle   6  Pass 1  IDiag  1:
 E= -426.823648421597     Delta-E=       -0.000007268327 Rises=F Damp=F
 DIIS: error= 5.45D-05 at cycle   6 NSaved=   6.
 NSaved= 6 IEnMin= 6 EnMin= -426.823648421597     IErMin= 6 ErrMin= 5.45D-05
 ErrMax= 5.45D-05 EMaxC= 1.00D-01 BMatC= 7.03D-07 BMatP= 9.32D-06
 IDIUse=1 WtCom= 1.00D+00 WtEn= 0.00D+00
 Coeff-Com: -0.193D-03-0.745D-03 0.312D-01 0.592D-01 0.362D+00 0.548D+00
 Coeff:     -0.193D-03-0.745D-03 0.312D-01 0.592D-01 0.362D+00 0.548D+00
 Gap=     0.351 Goal=   None    Shift=    0.000
 RMSDP=3.96D-06 MaxDP=1.30D-04 DE=-7.27D-06 OVMax= 1.56D-04

 Cycle   7  Pass 1  IDiag  1:
 E= -426.823649052041     Delta-E=       -0.000000630444 Rises=F Damp=F
 DIIS: error= 9.54D-06 at cycle   7 NSaved=   7.
 NSaved= 7 IEnMin= 7 EnMin= -426.823649052041     IErMin= 7 ErrMin= 9.54D-06
 ErrMax= 9.54D-06 EMaxC= 1.00D-01 BMatC= 2.24D-08 BMatP= 7.03D-07
 IDIUse=1 WtCom= 1.00D+00 WtEn= 0.00D+00
 Coeff-Com:  0.272D-04-0.268D-03 0.105D-02 0.360D-02 0.331D-01 0.167D+00
 Coeff-Com:  0.796D+00
 Coeff:      0.272D-04-0.268D-03 0.105D-02 0.360D-02 0.331D-01 0.167D+00
 Coeff:      0.796D+00
 Gap=     0.351 Goal=   None    Shift=    0.000
 RMSDP=7.87D-07 MaxDP=1.89D-05 DE=-6.30D-07 OVMax= 3.27D-05

 Cycle   8  Pass 1  IDiag  1:
 E= -426.823649072483     Delta-E=       -0.000000020442 Rises=F Damp=F
 DIIS: error= 1.89D-06 at cycle   8 NSaved=   8.
 NSaved= 8 IEnMin= 8 EnMin= -426.823649072483     IErMin= 8 ErrMin= 1.89D-06
 ErrMax= 1.89D-06 EMaxC= 1.00D-01 BMatC= 9.77D-10 BMatP= 2.24D-08
 IDIUse=1 WtCom= 1.00D+00 WtEn= 0.00D+00
 Coeff-Com:  0.160D-04-0.669D-04-0.659D-03-0.631D-03-0.623D-03 0.375D-01
 Coeff-Com:  0.272D+00 0.692D+00
 Coeff:      0.160D-04-0.669D-04-0.659D-03-0.631D-03-0.623D-03 0.375D-01
 Coeff:      0.272D+00 0.692D+00
 Gap=     0.351 Goal=   None    Shift=    0.000
 RMSDP=1.74D-07 MaxDP=7.13D-06 DE=-2.04D-08 OVMax= 7.26D-06

 Cycle   9  Pass 1  IDiag  1:
 E= -426.823649073259     Delta-E=       -0.000000000775 Rises=F Damp=F
 DIIS: error= 7.92D-07 at cycle   9 NSaved=   9.
 NSaved= 9 IEnMin= 9 EnMin= -426.823649073259     IErMin= 9 ErrMin= 7.92D-07
 ErrMax= 7.92D-07 EMaxC= 1.00D-01 BMatC= 1.59D-10 BMatP= 9.77D-10
 IDIUse=1 WtCom= 1.00D+00 WtEn= 0.00D+00
 Coeff-Com:  0.598D-05-0.157D-04-0.408D-03-0.546D-03-0.249D-02 0.815D-02
 Coeff-Com:  0.886D-01 0.349D+00 0.558D+00
 Coeff:      0.598D-05-0.157D-04-0.408D-03-0.546D-03-0.249D-02 0.815D-02
 Coeff:      0.886D-01 0.349D+00 0.558D+00
 Gap=     0.351 Goal=   None    Shift=    0.000
 RMSDP=5.41D-08 MaxDP=2.05D-06 DE=-7.75D-10 OVMax= 2.22D-06

 Cycle  10  Pass 1  IDiag  1:
 E= -426.823649073405     Delta-E=       -0.000000000146 Rises=F Damp=F
 DIIS: error= 6.57D-08 at cycle  10 NSaved=  10.
 NSaved=10 IEnMin=10 EnMin= -426.823649073405     IErMin=10 ErrMin= 6.57D-08
 ErrMax= 6.57D-08 EMaxC= 1.00D-01 BMatC= 1.23D-12 BMatP= 1.59D-10
 IDIUse=1 WtCom= 1.00D+00 WtEn= 0.00D+00
 Coeff-Com: -0.886D-07 0.809D-06-0.410D-04-0.572D-04-0.391D-03-0.317D-03
 Coeff-Com:  0.397D-02 0.291D-01 0.103D+00 0.865D+00
 Coeff:     -0.886D-07 0.809D-06-0.410D-04-0.572D-04-0.391D-03-0.317D-03
 Coeff:      0.397D-02 0.291D-01 0.103D+00 0.865D+00
 Gap=     0.351 Goal=   None    Shift=    0.000
 RMSDP=5.95D-09 MaxDP=1.47D-07 DE=-1.46D-10 OVMax= 2.06D-07

 Error on total polarization charges =  0.00827
 SCF Done:  E(RB3LYP) =  -426.823649073     A.U. after   10 cycles
             Convg  =    0.5950D-08             -V/T =  2.0065
 KE= 4.240637093420D+02 PE=-1.911747432294D+03 EE= 6.024615138721D+02
 Leave Link  502 at Mon Mar 14 13:52:06 2022, MaxMem=  536870912 cpu:     141.2
 (Enter /opt/gridunesp/dist/gaussian/g09/l601.exe)
 Copying SCF densities to generalized density rwf, IOpCl= 0 IROHF=0.

 **********************************************************************

            Population analysis using the SCF density.

 **********************************************************************

 Orbital symmetries:
       Occupied  (A') (A') (A') (A') (A') (A') (A') (A') (A') (A')
                 (A') (A') (A') (A') (A') (A') (A') (A') (A') (A')
                 (A") (A") (A") (A') (A") (A') (A') (A') (A") (A")
                 (A') (A') (A") (A') (A') (A") (A")
       Virtual   (A') (A') (A') (A') (A") (A') (A") (A') (A') (A')
                 (A") (A") (A") (A') (A') (A") (A") (A') (A') (A')
                 (A') (A') (A') (A') (A') (A') (A') (A') (A") (A")
                 (A") (A') (A') (A') (A") (A') (A') (A') (A") (A')
                 (A') (A') (A") (A') (A") (A') (A") (A") (A') (A")
                 (A') (A") (A') (A') (A') (A") (A") (A') (A') (A')
                 (A') (A') (A') (A") (A") (A') (A') (A") (A') (A")
                 (A') (A') (A') (A') (A') (A') (A') (A") (A') (A")
                 (A") (A') (A") (A") (A") (A") (A") (A') (A') (A')
                 (A') (A') (A') (A') (A') (A') (A") (A") (A') (A')
                 (A') (A") (A") (A") (A") (A") (A') (A") (A") (A')
                 (A") (A") (A") (A') (A") (A") (A") (A') (A') (A')
                 (A') (A') (A") (A') (A") (A') (A") (A') (A') (A")
                 (A') (A") (A') (A') (A") (A') (A') (A') (A") (A')
                 (A') (A') (A") (A') (A") (A') (A") (A') (A') (A')
                 (A') (A') (A') (A') (A") (A') (A') (A') (A') (A")
                 (A') (A') (A") (A') (A') (A") (A") (A") (A") (A')
                 (A') (A') (A') (A') (A') (A') (A') (A')
 The electronic state is 1-A'.
 Alpha  occ. eigenvalues --  -19.13236 -19.13236 -10.20956 -10.20956 -10.16158
 Alpha  occ. eigenvalues --  -10.16157 -10.16095 -10.16094 -10.16011  -1.02408
 Alpha  occ. eigenvalues --   -1.02407  -0.82065  -0.78380  -0.72689  -0.66162
 Alpha  occ. eigenvalues --   -0.60259  -0.58309  -0.57749  -0.51201  -0.50647
 Alpha  occ. eigenvalues --   -0.50077  -0.48263  -0.44917  -0.43227  -0.40542
 Alpha  occ. eigenvalues --   -0.40291  -0.38894  -0.36080  -0.36062  -0.33224
 Alpha  occ. eigenvalues --   -0.33140  -0.32918  -0.32675  -0.31821  -0.28955
 Alpha  occ. eigenvalues --   -0.26083  -0.26036
 Alpha virt. eigenvalues --    0.09017   0.09471   0.09554   0.11564   0.12096
 Alpha virt. eigenvalues --    0.13701   0.15581   0.15604   0.17298   0.19103
 Alpha virt. eigenvalues --    0.20229   0.21097   0.21361   0.21375   0.22540
 Alpha virt. eigenvalues --    0.22901   0.23381   0.23580   0.23811   0.26522
 Alpha virt. eigenvalues --    0.27264   0.28847   0.34665   0.37143   0.46235
 Alpha virt. eigenvalues --    0.51841   0.54719   0.55896   0.56539   0.57181
 Alpha virt. eigenvalues --    0.58410   0.59142   0.61619   0.62971   0.63248
 Alpha virt. eigenvalues --    0.69839   0.71325   0.71897   0.72256   0.73955
 Alpha virt. eigenvalues --    0.75580   0.77603   0.80157   0.80903   0.80939
 Alpha virt. eigenvalues --    0.82330   0.82983   0.84911   0.88047   0.88075
 Alpha virt. eigenvalues --    0.91011   0.92110   0.92351   0.93808   0.95081
 Alpha virt. eigenvalues --    0.95188   0.97140   0.97153   0.97324   0.98817
 Alpha virt. eigenvalues --    0.98898   0.99193   1.00451   1.00714   1.09168
 Alpha virt. eigenvalues --    1.17773   1.21901   1.22947   1.28411   1.29561
 Alpha virt. eigenvalues --    1.33750   1.35331   1.40213   1.41955   1.45580
 Alpha virt. eigenvalues --    1.48398   1.51692   1.55078   1.56343   1.59120
 Alpha virt. eigenvalues --    1.60328   1.63130   1.64181   1.68711   1.69136
 Alpha virt. eigenvalues --    1.71857   1.72429   1.73920   1.79694   1.88662
 Alpha virt. eigenvalues --    1.90100   1.90692   1.91657   1.93373   1.95682
 Alpha virt. eigenvalues --    1.98417   1.99227   1.99279   2.03294   2.05702
 Alpha virt. eigenvalues --    2.07324   2.10015   2.10076   2.11333   2.12936
 Alpha virt. eigenvalues --    2.13315   2.14552   2.19806   2.20424   2.22748
 Alpha virt. eigenvalues --    2.26434   2.27967   2.30514   2.32454   2.32958
 Alpha virt. eigenvalues --    2.34126   2.35129   2.37412   2.38409   2.39298
 Alpha virt. eigenvalues --    2.40985   2.45623   2.45736   2.46805   2.48919
 Alpha virt. eigenvalues --    2.55133   2.57451   2.61344   2.66040   2.68140
 Alpha virt. eigenvalues --    2.69350   2.70867   2.71602   2.73118   2.73737
 Alpha virt. eigenvalues --    2.73985   2.78215   2.80988   2.83356   2.85185
 Alpha virt. eigenvalues --    2.88130   2.90366   2.91500   2.95518   2.96126
 Alpha virt. eigenvalues --    2.96572   2.98049   2.98478   2.98709   3.01259
 Alpha virt. eigenvalues --    3.01516   3.06313   3.09417   3.30459   3.32622
 Alpha virt. eigenvalues --    3.32812   3.32948   3.34816   3.37545   3.40108
 Alpha virt. eigenvalues --    3.42507   3.48628   3.49335   3.53203   3.56251
 Alpha virt. eigenvalues --    3.58065   3.63224   3.64992   3.65431   4.00779
 Alpha virt. eigenvalues --    4.05466   4.28761   4.36063   4.44305   4.52321
 Alpha virt. eigenvalues --    4.60264   4.71244   4.84903
     Molecular Orbital Coefficients:
                           1         2         3         4         5
                           O         O         O         O         O
     Eigenvalues --   -19.13236 -19.13236 -10.20956 -10.20956 -10.16158
   1 1   O  1S          0.94341   0.30907   0.00006  -0.00011  -0.00004
   2        2S          0.02469   0.00811   0.00009  -0.00018  -0.00018
   3        2PX         0.00101   0.00033   0.00005  -0.00008   0.00001
   4        2PY        -0.00021  -0.00007   0.00004  -0.00008  -0.00005
   5        2PZ         0.00000   0.00000   0.00000   0.00000   0.00000
   6        3S          0.01155   0.00366  -0.00108   0.00191   0.00077
   7        3PX         0.00023   0.00005   0.00011  -0.00023  -0.00003
   8        3PY         0.00053   0.00013  -0.00006   0.00019   0.00047
   9        3PZ         0.00000   0.00000   0.00000   0.00000   0.00000
  10        4XX        -0.00764  -0.00249   0.00021  -0.00039  -0.00014
  11        4YY        -0.00756  -0.00247   0.00029  -0.00053  -0.00008
  12        4ZZ        -0.00767  -0.00250  -0.00002   0.00002  -0.00014
  13        4XY        -0.00013  -0.00005   0.00018  -0.00031   0.00004
  14        4XZ         0.00000   0.00000   0.00000   0.00000   0.00000
  15        4YZ         0.00000   0.00000   0.00000   0.00000   0.00000
  16 2   H  1S          0.00022   0.00007  -0.00004   0.00011   0.00008
  17        2S         -0.00117  -0.00039  -0.00004   0.00013   0.00014
  18        3PX         0.00009   0.00003  -0.00002   0.00004  -0.00003
  19        3PY        -0.00026  -0.00009  -0.00008   0.00015   0.00003
  20        3PZ         0.00000   0.00000   0.00000   0.00000   0.00000
  21 3   C  1S          0.00002   0.00001  -0.48797   0.86485  -0.00041
  22        2S          0.00035   0.00012  -0.02459   0.04348  -0.00016
  23        2PX        -0.00022  -0.00007   0.00015  -0.00027   0.00004
  24        2PY        -0.00025  -0.00008   0.00029  -0.00050  -0.00003
  25        2PZ         0.00000   0.00000   0.00000   0.00000   0.00000
  26        3S         -0.00238  -0.00071   0.00937  -0.01585   0.00054
  27        3PX         0.00110   0.00030  -0.00044   0.00062   0.00022
  28        3PY         0.00044   0.00008   0.00118  -0.00183   0.00044
  29        3PZ         0.00000   0.00000   0.00000   0.00000   0.00000
  30        4XX         0.00011   0.00004   0.00435  -0.00772  -0.00009
  31        4YY         0.00007   0.00003   0.00434  -0.00770  -0.00007
  32        4ZZ         0.00008   0.00003   0.00432  -0.00768  -0.00008
  33        4XY         0.00008   0.00003  -0.00013   0.00021   0.00002
  34        4XZ         0.00000   0.00000   0.00000   0.00000   0.00000
  35        4YZ         0.00000   0.00000   0.00000   0.00000   0.00000
  36 4   C  1S         -0.00003  -0.00001  -0.00129   0.00224   0.14804
  37        2S         -0.00009  -0.00001   0.00005  -0.00020   0.00718
  38        2PX        -0.00002  -0.00001   0.00006  -0.00007  -0.00007
  39        2PY        -0.00008  -0.00003  -0.00009   0.00011  -0.00007
  40        2PZ         0.00000   0.00000   0.00000   0.00000   0.00000
  41        3S          0.00200   0.00045  -0.00245   0.00485   0.00213
  42        3PX         0.00086   0.00019  -0.00096   0.00152   0.00106
  43        3PY         0.00052   0.00015   0.00171  -0.00206   0.00214
  44        3PZ         0.00000   0.00000   0.00000   0.00000   0.00000
  45        4XX        -0.00002  -0.00001   0.00011  -0.00024  -0.00159
  46        4YY        -0.00007  -0.00002   0.00013  -0.00022  -0.00153
  47        4ZZ        -0.00005  -0.00001   0.00008  -0.00018  -0.00146
  48        4XY         0.00001   0.00000  -0.00001   0.00006  -0.00009
  49        4XZ         0.00000   0.00000   0.00000   0.00000   0.00000
  50        4YZ         0.00000   0.00000   0.00000   0.00000   0.00000
  51 5   H  1S          0.00000   0.00000  -0.00001   0.00000  -0.00002
  52        2S         -0.00002  -0.00001  -0.00149   0.00259  -0.00019
  53        3PX         0.00003   0.00001  -0.00002   0.00004  -0.00002
  54        3PY         0.00004   0.00002  -0.00005   0.00008  -0.00003
  55        3PZ         0.00007   0.00002  -0.00005   0.00009   0.00000
  56 6   H  1S          0.00000   0.00000  -0.00001   0.00000  -0.00002
  57        2S         -0.00002  -0.00001  -0.00149   0.00259  -0.00019
  58        3PX         0.00003   0.00001  -0.00002   0.00004  -0.00002
  59        3PY         0.00004   0.00002  -0.00005   0.00008  -0.00003
  60        3PZ        -0.00007  -0.00002   0.00005  -0.00009   0.00000
  61 7   C  1S          0.00003   0.00002   0.00003  -0.00005   0.69289
  62        2S          0.00017   0.00010   0.00006  -0.00009   0.03547
  63        2PX         0.00001   0.00001   0.00002  -0.00006   0.00007
  64        2PY        -0.00002   0.00002  -0.00009   0.00010  -0.00010
  65        2PZ         0.00000   0.00000   0.00000   0.00000   0.00000
  66        3S         -0.00151  -0.00072   0.00024  -0.00068  -0.01509
  67        3PX         0.00043   0.00010  -0.00061   0.00105   0.00167
  68        3PY         0.00088  -0.00009   0.00091  -0.00103   0.00011
  69        3PZ         0.00000   0.00000   0.00000   0.00000   0.00000
  70        4XX         0.00004   0.00003   0.00002  -0.00003  -0.00626
  71        4YY        -0.00001  -0.00001   0.00000  -0.00002  -0.00644
  72        4ZZ         0.00005   0.00003   0.00001  -0.00004  -0.00608
  73        4XY        -0.00003   0.00000  -0.00004   0.00001   0.00002
  74        4XZ         0.00000   0.00000   0.00000   0.00000   0.00000
  75        4YZ         0.00000   0.00000   0.00000   0.00000   0.00000
  76 8   H  1S          0.00001   0.00001   0.00004  -0.00013  -0.00016
  77        2S          0.00001   0.00000  -0.00013   0.00019   0.00047
  78        3PX        -0.00003  -0.00001  -0.00002   0.00005   0.00003
  79        3PY        -0.00006  -0.00002  -0.00001  -0.00001   0.00000
  80        3PZ         0.00002   0.00000  -0.00003   0.00005   0.00001
  81 9   H  1S          0.00001   0.00001   0.00004  -0.00013  -0.00016
  82        2S          0.00001   0.00000  -0.00013   0.00019   0.00047
  83        3PX        -0.00003  -0.00001  -0.00002   0.00005   0.00003
  84        3PY        -0.00006  -0.00002  -0.00001  -0.00001   0.00000
  85        3PZ        -0.00002   0.00000   0.00003  -0.00005  -0.00001
  86 10  C  1S          0.00000  -0.00001  -0.00003  -0.00012   0.12353
  87        2S         -0.00002  -0.00004  -0.00010  -0.00036   0.00574
  88        2PX         0.00000   0.00000   0.00001   0.00003  -0.00017
  89        2PY        -0.00001   0.00001  -0.00006   0.00002   0.00000
  90        2PZ         0.00000   0.00000   0.00000   0.00000   0.00000
  91        3S          0.00022   0.00044   0.00078   0.00281   0.00626
  92        3PX         0.00008   0.00016   0.00013   0.00046   0.00243
  93        3PY         0.00001   0.00000   0.00196  -0.00055  -0.00006
  94        3PZ         0.00000   0.00000   0.00000   0.00000   0.00000
  95        4XX        -0.00001  -0.00001  -0.00003  -0.00010  -0.00152
  96        4YY         0.00001   0.00001   0.00000   0.00001  -0.00145
  97        4ZZ         0.00000   0.00000  -0.00003  -0.00011  -0.00133
  98        4XY         0.00001   0.00000   0.00008  -0.00002   0.00000
  99        4XZ         0.00000   0.00000   0.00000   0.00000   0.00000
 100        4YZ         0.00000   0.00000   0.00000   0.00000   0.00000
 101 11  H  1S          0.00005   0.00003   0.00001  -0.00004  -0.00002
 102        2S          0.00001   0.00002   0.00030  -0.00037   0.00187
 103        3PX         0.00000   0.00000   0.00001  -0.00003   0.00003
 104        3PY        -0.00003   0.00001  -0.00005   0.00007  -0.00003
 105        3PZ         0.00001   0.00000  -0.00002   0.00003   0.00016
 106 12  H  1S          0.00005   0.00003   0.00001  -0.00004  -0.00002
 107        2S          0.00001   0.00002   0.00030  -0.00037   0.00187
 108        3PX         0.00000   0.00000   0.00001  -0.00003   0.00003
 109        3PY        -0.00003   0.00001  -0.00005   0.00007  -0.00003
 110        3PZ        -0.00001   0.00000   0.00002  -0.00003  -0.00016
 111 13  C  1S          0.00000   0.00004  -0.00005  -0.00003   0.66949
 112        2S         -0.00002   0.00019  -0.00010  -0.00005   0.03426
 113        2PX         0.00001   0.00001  -0.00005  -0.00004   0.00007
 114        2PY        -0.00003   0.00000  -0.00013  -0.00004   0.00010
 115        2PZ         0.00000   0.00000   0.00000   0.00000   0.00000
 116        3S          0.00032  -0.00165  -0.00056  -0.00046  -0.01460
 117        3PX        -0.00017   0.00040   0.00106   0.00059   0.00165
 118        3PY         0.00060  -0.00066   0.00131   0.00041  -0.00014
 119        3PZ         0.00000   0.00000   0.00000   0.00000   0.00000
 120        4XX         0.00000   0.00005  -0.00003  -0.00001  -0.00605
 121        4YY         0.00000  -0.00001  -0.00001  -0.00001  -0.00623
 122        4ZZ         0.00000   0.00005  -0.00003  -0.00003  -0.00588
 123        4XY        -0.00002   0.00003  -0.00004   0.00001  -0.00002
 124        4XZ         0.00000   0.00000   0.00000   0.00000   0.00000
 125        4YZ         0.00000   0.00000   0.00000   0.00000   0.00000
 126 14  H  1S          0.00000  -0.00001  -0.00003  -0.00011  -0.00020
 127        2S          0.00000   0.00001  -0.00003  -0.00010   0.00041
 128        3PX         0.00000   0.00000   0.00000   0.00001   0.00005
 129        3PY        -0.00001   0.00000  -0.00006   0.00002   0.00000
 130        3PZ         0.00000   0.00000   0.00000   0.00001   0.00005
 131 15  H  1S          0.00000  -0.00001  -0.00003  -0.00011  -0.00020
 132        2S          0.00000   0.00001  -0.00003  -0.00010   0.00041
 133        3PX         0.00000   0.00000   0.00000   0.00001   0.00005
 134        3PY        -0.00001   0.00000  -0.00006   0.00002   0.00000
 135        3PZ         0.00000   0.00000   0.00000  -0.00001  -0.00005
 136 16  C  1S          0.00001  -0.00003   0.00226   0.00125   0.14286
 137        2S          0.00005  -0.00008  -0.00015  -0.00015   0.00691
 138        2PX         0.00001  -0.00002  -0.00009  -0.00003  -0.00006
 139        2PY        -0.00002   0.00008  -0.00014  -0.00005   0.00007
 140        2PZ         0.00000   0.00000   0.00000   0.00000   0.00000
 141        3S         -0.00082   0.00188   0.00461   0.00288   0.00213
 142        3PX        -0.00035   0.00081   0.00161   0.00081   0.00103
 143        3PY         0.00019  -0.00051   0.00253   0.00088  -0.00212
 144        3PZ         0.00000   0.00000   0.00000   0.00000   0.00000
 145        4XX         0.00001  -0.00002  -0.00022  -0.00014  -0.00154
 146        4YY         0.00002  -0.00007  -0.00022  -0.00013  -0.00148
 147        4ZZ         0.00002  -0.00005  -0.00016  -0.00011  -0.00142
 148        4XY         0.00001  -0.00001  -0.00004  -0.00004   0.00009
 149        4XZ         0.00000   0.00000   0.00000   0.00000   0.00000
 150        4YZ         0.00000   0.00000   0.00000   0.00000   0.00000
 151 17  H  1S          0.00000   0.00006  -0.00003  -0.00003  -0.00002
 152        2S          0.00001   0.00002  -0.00045  -0.00016   0.00179
 153        3PX         0.00001   0.00000  -0.00002  -0.00002   0.00003
 154        3PY        -0.00002   0.00002  -0.00008  -0.00003   0.00004
 155        3PZ         0.00000   0.00001   0.00004   0.00001   0.00016
 156 18  H  1S          0.00000   0.00006  -0.00003  -0.00003  -0.00002
 157        2S          0.00001   0.00002  -0.00045  -0.00016   0.00179
 158        3PX         0.00001   0.00000  -0.00002  -0.00002   0.00003
 159        3PY        -0.00002   0.00002  -0.00008  -0.00003   0.00004
 160        3PZ         0.00000  -0.00001  -0.00004  -0.00001  -0.00016
 161 19  C  1S          0.00000   0.00002   0.86486   0.48796  -0.00040
 162        2S         -0.00011   0.00035   0.04353   0.02451  -0.00015
 163        2PX         0.00007  -0.00022  -0.00026  -0.00015   0.00004
 164        2PY        -0.00009   0.00025   0.00050   0.00028   0.00003
 165        2PZ         0.00000   0.00000   0.00000   0.00000   0.00000
 166        3S          0.00084  -0.00234  -0.01622  -0.00872   0.00053
 167        3PX        -0.00041   0.00106   0.00070   0.00030   0.00020
 168        3PY         0.00020  -0.00040   0.00196   0.00096  -0.00044
 169        3PZ         0.00000   0.00000   0.00000   0.00000   0.00000
 170        4XX        -0.00003   0.00012  -0.00771  -0.00436  -0.00008
 171        4YY        -0.00002   0.00007  -0.00770  -0.00435  -0.00007
 172        4ZZ        -0.00002   0.00009  -0.00767  -0.00435  -0.00007
 173        4XY         0.00002  -0.00009  -0.00022  -0.00012  -0.00002
 174        4XZ         0.00000   0.00000   0.00000   0.00000   0.00000
 175        4YZ         0.00000   0.00000   0.00000   0.00000   0.00000
 176 20  H  1S          0.00000   0.00001  -0.00011  -0.00009  -0.00016
 177        2S         -0.00001   0.00001   0.00021   0.00009   0.00045
 178        3PX         0.00001  -0.00002   0.00004   0.00003   0.00003
 179        3PY        -0.00002   0.00006   0.00000   0.00002   0.00000
 180        3PZ        -0.00001   0.00001   0.00005   0.00003   0.00001
 181 21  H  1S          0.00000   0.00001  -0.00011  -0.00009  -0.00016
 182        2S         -0.00001   0.00001   0.00021   0.00009   0.00045
 183        3PX         0.00001  -0.00002   0.00004   0.00003   0.00003
 184        3PY        -0.00002   0.00006   0.00000   0.00002   0.00000
 185        3PZ         0.00001  -0.00001  -0.00005  -0.00003  -0.00001
 186 22  O  1S         -0.30906   0.94342  -0.00011  -0.00006  -0.00004
 187        2S         -0.00807   0.02470  -0.00017  -0.00010  -0.00017
 188        2PX        -0.00033   0.00101  -0.00008  -0.00004   0.00001
 189        2PY        -0.00007   0.00021   0.00007   0.00005   0.00005
 190        2PZ         0.00000   0.00000   0.00000   0.00000   0.00000
 191        3S         -0.00388   0.01148   0.00191   0.00108   0.00075
 192        3PX        -0.00009   0.00022  -0.00021  -0.00015  -0.00003
 193        3PY         0.00020  -0.00050  -0.00015  -0.00013  -0.00046
 194        3PZ         0.00000   0.00000   0.00000   0.00000   0.00000
 195        4XX         0.00251  -0.00763  -0.00039  -0.00023  -0.00014
 196        4YY         0.00249  -0.00756  -0.00053  -0.00030  -0.00008
 197        4ZZ         0.00253  -0.00766   0.00003   0.00000  -0.00014
 198        4XY        -0.00004   0.00013   0.00032   0.00017  -0.00004
 199        4XZ         0.00000   0.00000   0.00000   0.00000   0.00000
 200        4YZ         0.00000   0.00000   0.00000   0.00000   0.00000
 201 23  H  1S          0.00000   0.00001   0.00001  -0.00001  -0.00002
 202        2S          0.00001  -0.00002   0.00261   0.00145  -0.00018
 203        3PX        -0.00001   0.00003   0.00004   0.00002  -0.00002
 204        3PY         0.00001  -0.00004  -0.00008  -0.00004   0.00003
 205        3PZ        -0.00002   0.00007   0.00009   0.00005   0.00000
 206 24  H  1S          0.00000   0.00001   0.00001  -0.00001  -0.00002
 207        2S          0.00001  -0.00002   0.00261   0.00145  -0.00018
 208        3PX        -0.00001   0.00003   0.00004   0.00002  -0.00002
 209        3PY         0.00001  -0.00004  -0.00008  -0.00004   0.00003
 210        3PZ         0.00002  -0.00007  -0.00009  -0.00005   0.00000
 211 25  H  1S         -0.00007   0.00022   0.00009   0.00007   0.00007
 212        2S          0.00038  -0.00118   0.00011   0.00009   0.00014
 213        3PX        -0.00003   0.00010   0.00004   0.00002  -0.00003
 214        3PY        -0.00008   0.00026  -0.00014  -0.00009  -0.00003
 215        3PZ         0.00000   0.00000   0.00000   0.00000   0.00000
                           6         7         8         9        10
                           O         O         O         O         O
     Eigenvalues --   -10.16157 -10.16095 -10.16094 -10.16011  -1.02408
   1 1   O  1S          0.00003   0.00003  -0.00004   0.00000   0.13839
   2        2S          0.00012   0.00009  -0.00015   0.00001  -0.30125
   3        2PX         0.00000   0.00000  -0.00001  -0.00001  -0.07599
   4        2PY         0.00003  -0.00002   0.00002   0.00001  -0.00882
   5        2PZ         0.00000   0.00000   0.00000   0.00000   0.00000
   6        3S         -0.00056  -0.00080   0.00115  -0.00005  -0.29511
   7        3PX        -0.00001  -0.00007   0.00017   0.00010  -0.03093
   8        3PY        -0.00028  -0.00017   0.00027  -0.00011  -0.01715
   9        3PZ         0.00000   0.00000   0.00000   0.00000   0.00000
  10        4XX         0.00009   0.00011  -0.00013   0.00004  -0.00098
  11        4YY         0.00005   0.00015  -0.00016   0.00000  -0.00207
  12        4ZZ         0.00008   0.00003  -0.00007   0.00001   0.00737
  13        4XY        -0.00002  -0.00005   0.00006   0.00000  -0.00426
  14        4XZ         0.00000   0.00000   0.00000   0.00000   0.00000
  15        4YZ         0.00000   0.00000   0.00000   0.00000   0.00000
  16 2   H  1S         -0.00002  -0.00001  -0.00001  -0.00004  -0.09706
  17        2S         -0.00008   0.00018  -0.00012   0.00008  -0.00965
  18        3PX         0.00002   0.00005  -0.00005   0.00002   0.00803
  19        3PY        -0.00001   0.00000   0.00000   0.00001  -0.01397
  20        3PZ         0.00000   0.00000   0.00000   0.00000   0.00000
  21 3   C  1S          0.00043  -0.00209   0.00185  -0.00006   0.05507
  22        2S          0.00012  -0.00036   0.00028  -0.00023  -0.10509
  23        2PX        -0.00003   0.00004  -0.00004  -0.00003   0.04185
  24        2PY         0.00004  -0.00005   0.00002  -0.00001   0.06302
  25        2PZ         0.00000   0.00000   0.00000   0.00000   0.00000
  26        3S         -0.00025   0.00458  -0.00422   0.00177  -0.01858
  27        3PX        -0.00045  -0.00123   0.00139  -0.00020  -0.01251
  28        3PY        -0.00024   0.00168  -0.00114   0.00103   0.00024
  29        3PZ         0.00000   0.00000   0.00000   0.00000   0.00000
  30        4XX         0.00008  -0.00020   0.00015  -0.00009   0.00211
  31        4YY         0.00006  -0.00017   0.00013  -0.00001  -0.00806
  32        4ZZ         0.00004  -0.00008   0.00006  -0.00007   0.00861
  33        4XY        -0.00005   0.00010  -0.00010  -0.00002  -0.01016
  34        4XZ         0.00000   0.00000   0.00000   0.00000   0.00000
  35        4YZ         0.00000   0.00000   0.00000   0.00000   0.00000
  36 4   C  1S         -0.15157   0.72697  -0.64226   0.01568   0.01201
  37        2S         -0.00765   0.03745  -0.03302   0.00089  -0.01900
  38        2PX         0.00011  -0.00003   0.00002   0.00004  -0.00512
  39        2PY         0.00000   0.00001   0.00001  -0.00007   0.01502
  40        2PZ         0.00000   0.00000   0.00000   0.00000   0.00000
  41        3S          0.00000  -0.01781   0.01553  -0.00264  -0.03449
  42        3PX        -0.00097  -0.00177   0.00184  -0.00135  -0.01110
  43        3PY        -0.00049  -0.00085   0.00042  -0.00021   0.00414
  44        3PZ         0.00000   0.00000   0.00000   0.00000   0.00000
  45        4XX         0.00152  -0.00643   0.00572  -0.00010   0.00033
  46        4YY         0.00156  -0.00666   0.00588  -0.00014  -0.00294
  47        4ZZ         0.00140  -0.00632   0.00559  -0.00012   0.00147
  48        4XY         0.00014   0.00001   0.00000  -0.00002   0.00174
  49        4XZ         0.00000   0.00000   0.00000   0.00000   0.00000
  50        4YZ         0.00000   0.00000   0.00000   0.00000   0.00000
  51 5   H  1S          0.00001  -0.00013   0.00010  -0.00009  -0.02057
  52        2S          0.00029   0.00002  -0.00006  -0.00003  -0.00205
  53        3PX         0.00002  -0.00004   0.00002  -0.00001   0.00249
  54        3PY         0.00002   0.00004  -0.00005  -0.00002   0.00052
  55        3PZ        -0.00001  -0.00003   0.00003  -0.00001   0.00251
  56 6   H  1S          0.00001  -0.00013   0.00010  -0.00009  -0.02057
  57        2S          0.00029   0.00002  -0.00006  -0.00003  -0.00205
  58        3PX         0.00002  -0.00004   0.00002  -0.00001   0.00249
  59        3PY         0.00002   0.00004  -0.00005  -0.00002   0.00052
  60        3PZ         0.00001   0.00003  -0.00003   0.00001  -0.00251
[...]
    24  H   -0.000825   0.000008   0.000003  -0.042523  -0.000704   0.005280
    25  H   -0.000266   0.000000   0.000000   0.005819   0.000003   0.000003
             19         20         21         22         23         24
     1  O    0.000000   0.000000   0.000000   0.000000   0.000000   0.000000
     2  H    0.000000   0.000000   0.000000   0.000000   0.000000   0.000000
     3  C    0.000000   0.000000   0.000000   0.000000   0.000000   0.000000
     4  C    0.000001   0.000001   0.000001   0.000000   0.000000   0.000000
     5  H    0.000000   0.000000   0.000000   0.000000   0.000000   0.000000
     6  H    0.000000   0.000000   0.000000   0.000000   0.000000   0.000000
     7  C   -0.000113   0.000070   0.000070   0.000000   0.000005   0.000005
     8  H    0.000000  -0.000002   0.000001   0.000000   0.000000   0.000000
     9  H    0.000000   0.000001  -0.000002   0.000000   0.000000   0.000000
    10  C    0.003087  -0.004232  -0.004232  -0.000035  -0.000065  -0.000065
    11  H    0.000002   0.000005   0.000005   0.000000  -0.000002   0.000001
    12  H    0.000002   0.000005   0.000005   0.000000   0.000001  -0.000002
    13  C   -0.031683  -0.033967  -0.033967   0.002170  -0.000825  -0.000825
    14  H    0.000041   0.004705  -0.000476   0.000000   0.000003   0.000008
    15  H    0.000041  -0.000476   0.004705   0.000000   0.000008   0.000003
    16  C    0.367715   0.375139   0.375139  -0.048166  -0.042523  -0.042523
    17  H   -0.004225   0.005940  -0.005930  -0.000009   0.005280  -0.000704
    18  H   -0.004225  -0.005930   0.005940  -0.000009  -0.000704   0.005280
    19  C    4.727120  -0.037291  -0.037291   0.233572   0.374126   0.374126
    20  H   -0.037291   0.636799  -0.041233   0.003793   0.007001  -0.008855
    21  H   -0.037291  -0.041233   0.636799   0.003793  -0.008855   0.007001
    22  O    0.233572   0.003793   0.003793   8.175805  -0.037876  -0.037876
    23  H    0.374126   0.007001  -0.008855  -0.037876   0.679328  -0.058414
    24  H    0.374126  -0.008855   0.007001  -0.037876  -0.058414   0.679328
    25  H   -0.022098  -0.000094  -0.000094   0.285348  -0.003925  -0.003925
             25
     1  O    0.000000
     2  H    0.000000
     3  C    0.000000
     4  C    0.000000
     5  H    0.000000
     6  H    0.000000
     7  C    0.000000
     8  H    0.000000
     9  H    0.000000
    10  C    0.000002
    11  H    0.000000
    12  H    0.000000
    13  C   -0.000266
    14  H    0.000000
    15  H    0.000000
    16  C    0.005819
    17  H    0.000003
    18  H    0.000003
    19  C   -0.022098
    20  H   -0.000094
    21  H   -0.000094
    22  O    0.285348
    23  H   -0.003925
    24  H   -0.003925
    25  H    0.413525
 Mulliken atomic charges:
              1
     1  O   -0.580510
     2  H    0.325702
     3  C    0.057091
     4  C   -0.187492
     5  H    0.087437
     6  H    0.087437
     7  C   -0.183276
     8  H    0.098622
     9  H    0.098622
    10  C   -0.174521
    11  H    0.095108
    12  H    0.095108
    13  C   -0.183276
    14  H    0.093410
    15  H    0.093410
    16  C   -0.187492
    17  H    0.095108
    18  H    0.095108
    19  C    0.057091
    20  H    0.098622
    21  H    0.098622
    22  O   -0.580510
    23  H    0.087437
    24  H    0.087437
    25  H    0.325702
 Sum of Mulliken atomic charges =   0.00000
 Mulliken charges with hydrogens summed into heavy atoms:
              1
     1  O   -0.254808
     3  C    0.231965
     4  C    0.009753
     7  C    0.006941
    10  C    0.012299
    13  C    0.006941
    16  C    0.009753
    19  C    0.231965
    22  O   -0.254808
 Sum of Mulliken charges with hydrogens summed into heavy atoms =   0.00000
 Electronic spatial extent (au):  <R**2>=           3206.7628
 Charge=              0.0000 electrons
 Dipole moment (field-independent basis, Debye):
    X=              0.0000    Y=              0.0000    Z=             -3.6680  Tot=              3.6680
 Quadrupole moment (field-independent basis, Debye-Ang):
   XX=            -57.5213   YY=            -49.9147   ZZ=            -59.4251
   XY=              0.0000   XZ=              0.0000   YZ=              0.0000
 Traceless Quadrupole moment (field-independent basis, Debye-Ang):
   XX=             -1.9009   YY=              5.7056   ZZ=             -3.8047
   XY=              0.0000   XZ=              0.0000   YZ=              0.0000
 Octapole moment (field-independent basis, Debye-Ang**2):
  XXX=              0.0000  YYY=              0.0000  ZZZ=              1.2084  XYY=              0.0000
  XXY=              0.0000  XXZ=              0.0672  XZZ=              0.0000  YZZ=              0.0000
  YYZ=            -92.6969  XYZ=              0.0000
 Hexadecapole moment (field-independent basis, Debye-Ang**3):
 XXXX=           -105.1004 YYYY=          -2702.7108 ZZZZ=           -190.0423 XXXY=              0.0000
 XXXZ=              0.0000 YYYX=              0.0000 YYYZ=              0.0000 ZZZX=              0.0000
 ZZZY=              0.0000 XXYY=           -637.8602 XXZZ=            -45.4001 YYZZ=           -676.9369
 XXYZ=              0.0000 YYXZ=              0.0000 ZZXY=              0.0000
 N-N= 4.446747855877D+02 E-N=-1.883372669168D+03  KE= 4.228522041971D+02
 Symmetry A1   KE= 2.167165394961D+02
 Symmetry A2   KE= 1.065861117307D+01
 Symmetry B1   KE= 1.245780316770D+01
 Symmetry B2   KE= 1.830192503602D+02
 Orbital energies and kinetic energies (alpha):
                                 1                 2
   1         (B2)--O         -19.140047         29.029200
   2         (A1)--O         -19.140047         29.029399
   3         (B2)--O         -10.224744         15.887987
   4         (A1)--O         -10.224743         15.887777
   5         (A1)--O         -10.178020         15.884761
   6         (B2)--O         -10.178009         15.885726
   7         (A1)--O         -10.176500         15.886782
   8         (B2)--O         -10.176329         15.885445
   9         (A1)--O         -10.176329         15.885575
  10         (B2)--O          -1.009541          2.513329
  11         (A1)--O          -1.009540          2.512940
  12         (A1)--O          -0.804939          1.341722
  13         (B2)--O          -0.772948          1.426953
  14         (A1)--O          -0.721445          1.522367
  15         (B2)--O          -0.659315          1.608692
  16         (A1)--O          -0.601075          1.587300
  17         (A1)--O          -0.575684          1.145014
  18         (B2)--O          -0.574998          1.309394
  19         (A1)--O          -0.502550          1.588569
  20         (B2)--O          -0.497788          1.734036
  21         (B1)--O          -0.484187          0.855467
  22         (A2)--O          -0.469002          0.948523
  23         (B1)--O          -0.437300          1.047795
  24         (B2)--O          -0.425074          1.345716
  25         (A1)--O          -0.398631          1.492701
  26         (A2)--O          -0.395810          1.150209
  27         (A1)--O          -0.389180          1.537270
  28         (B2)--O          -0.361133          1.632692
  29         (B1)--O          -0.354345          1.199736
  30         (B2)--O          -0.334554          1.569558
  31         (A1)--O          -0.332109          1.676692
  32         (A2)--O          -0.327068          1.128839
  33         (A1)--O          -0.321594          1.379400
  34         (B1)--O          -0.318680          1.027277
  35         (B2)--O          -0.305507          1.680897
  36         (A2)--O          -0.265191          2.101735
  37         (B1)--O          -0.264838          2.098626
  38         (A1)--V           0.085982          1.210622
  39         (B2)--V           0.088588          1.191170
  40         (A1)--V           0.091569          0.880492
  41         (B2)--V           0.106835          1.087768
  42         (B1)--V           0.117459          0.832457
  43         (A1)--V           0.129650          0.966999
  44         (A1)--V           0.142392          1.264282
  45         (A2)--V           0.147749          0.910696
  46         (B2)--V           0.161904          1.069237
  47         (B2)--V           0.183268          1.184389
  48         (B1)--V           0.187828          1.013042
  49         (A1)--V           0.196338          1.791023
  50         (A1)--V           0.201214          1.352008
  51         (B1)--V           0.202736          0.995954
  52         (A2)--V           0.203046          0.998128
  53         (B1)--V           0.211923          1.025620
  54         (A2)--V           0.213292          1.048373
  55         (B2)--V           0.214706          1.655269
  56         (A1)--V           0.224934          1.579275
  57         (A1)--V           0.240124          1.323020
  58         (B2)--V           0.259242          1.662897
  59         (B2)--V           0.266157          1.697581
  60         (B2)--V           0.320433          2.075972
  61         (A1)--V           0.337562          2.289337
  62         (A1)--V           0.473794          1.740665
  63         (B2)--V           0.512156          1.848597
  64         (A1)--V           0.533385          1.909683
  65         (B2)--V           0.533680          2.312503
  66         (A2)--V           0.557380          1.621338
  67         (B1)--V           0.559637          1.614546
  68         (B1)--V           0.580167          1.714740
  69         (A1)--V           0.582803          2.109396
  70         (A1)--V           0.613164          2.389838
  71         (B2)--V           0.613581          2.093910
  72         (A2)--V           0.630625          1.929781
  73         (B2)--V           0.665207          2.818616
  74         (A1)--V           0.687057          2.628949
  75         (B2)--V           0.703100          2.317776
  76         (B1)--V           0.707800          2.254224
  77         (A1)--V           0.723205          2.514007
  78         (A1)--V           0.751871          2.325791
  79         (B2)--V           0.761401          2.501836
  80         (A2)--V           0.777931          2.566295
  81         (B1)--V           0.790908          2.634692
  82         (B2)--V           0.799170          2.612105
  83         (B1)--V           0.819630          2.462091
  84         (A1)--V           0.820737          2.728388
  85         (A2)--V           0.834754          2.496204
  86         (A1)--V           0.852640          2.498827
  87         (B1)--V           0.864418          2.496245
  88         (A1)--V           0.897080          2.605335
  89         (B2)--V           0.899855          2.617083
  90         (A2)--V           0.905361          2.547442
  91         (A1)--V           0.923774          2.558647
  92         (B2)--V           0.925253          2.414520
  93         (B1)--V           0.932172          2.376321
  94         (A1)--V           0.949245          2.324095
  95         (A2)--V           0.952487          2.556267
  96         (B2)--V           0.954219          2.496303
  97         (A1)--V           0.962263          2.472227
  98         (B2)--V           0.968783          2.467514
  99         (B2)--V           0.984633          2.795391
 100         (A1)--V           0.989528          2.750438
 101         (B1)--V           0.993945          3.014227
 102         (A2)--V           1.061425          2.610520
 103         (A1)--V           1.187845          2.587136
 104         (B2)--V           1.193509          2.707506
 105         (B1)--V           1.198372          2.292792
 106         (B2)--V           1.223654          2.524499
 107         (A2)--V           1.291712          2.347124
 108         (A1)--V           1.318220          2.543183
 109         (A1)--V           1.329501          2.469972
 110         (B2)--V           1.378863          2.489664
 111         (B2)--V           1.396612          2.513748
 112         (A1)--V           1.434509          2.413170
 113         (A1)--V           1.455570          2.540959
 114         (B2)--V           1.496547          2.467061
 115         (B1)--V           1.533985          2.533488
 116         (B2)--V           1.540349          2.664940
 117         (A2)--V           1.586426          2.571331
 118         (B1)--V           1.596233          2.573188
 119         (A1)--V           1.604775          2.678153
 120         (A2)--V           1.634901          2.621665
 121         (B1)--V           1.685924          2.666249
 122         (A2)--V           1.687383          2.635587
 123         (A1)--V           1.697667          2.871045
 124         (B1)--V           1.708026          2.664876
 125         (A2)--V           1.713839          2.679306
 126         (B2)--V           1.753752          2.875359
 127         (A1)--V           1.855904          3.110453
 128         (B2)--V           1.860865          3.158588
 129         (A1)--V           1.865213          3.240052
 130         (B2)--V           1.878486          3.263200
 131         (B2)--V           1.899301          3.158261
 132         (B2)--V           1.921796          3.270681
 133         (A1)--V           1.924596          3.152676
 134         (B1)--V           1.943084          2.990779
 135         (A2)--V           1.943257          2.988900
 136         (A1)--V           1.957629          3.232846
 137         (A1)--V           1.989665          3.230479
 138         (B2)--V           1.993266          3.504512
 139         (A1)--V           2.058997          3.529161
 140         (A2)--V           2.067713          3.189257
 141         (B1)--V           2.076911          3.207617
 142         (B1)--V           2.077465          3.163074
 143         (A2)--V           2.102426          3.183125
 144         (B1)--V           2.117128          3.300585
 145         (B1)--V           2.151941          3.306728
 146         (A2)--V           2.158887          3.319260
 147         (B2)--V           2.168781          3.452768
 148         (B1)--V           2.228121          3.035527
 149         (A2)--V           2.243151          3.048964
 150         (B1)--V           2.269380          3.075598
 151         (A1)--V           2.278389          3.501139
 152         (A2)--V           2.295581          3.119084
 153         (B1)--V           2.318546          3.159786
 154         (A2)--V           2.325175          3.164321
 155         (B2)--V           2.337343          3.543309
 156         (A1)--V           2.344893          3.557952
 157         (A1)--V           2.373799          3.589385
 158         (B2)--V           2.401054          3.744361
 159         (B1)--V           2.426202          3.306014
 160         (A2)--V           2.429309          3.413107
 161         (B2)--V           2.431936          3.581899
 162         (A1)--V           2.469676          3.825322
 163         (B1)--V           2.512556          3.594036
 164         (A1)--V           2.530164          3.603633
 165         (B2)--V           2.587672          3.593169
 166         (A1)--V           2.625743          3.700807
 167         (A2)--V           2.626788          3.737112
 168         (B2)--V           2.660487          3.937087
 169         (B1)--V           2.669525          3.600265
 170         (A2)--V           2.671839          3.626027
 171         (B2)--V           2.679335          3.780692
 172         (A1)--V           2.687743          3.929990
 173         (A1)--V           2.700210          3.834643
 174         (B2)--V           2.731810          3.919013
 175         (B1)--V           2.739753          3.889507
 176         (A1)--V           2.759911          3.805565
 177         (B2)--V           2.802643          4.129736
 178         (A2)--V           2.824563          3.969514
 179         (B2)--V           2.830758          3.794024
 180         (A1)--V           2.855343          4.063300
 181         (B1)--V           2.876577          4.007080
 182         (A1)--V           2.883742          3.983950
 183         (A2)--V           2.902907          4.017098
 184         (B2)--V           2.916852          4.034719
 185         (A1)--V           2.918548          4.110038
 186         (A1)--V           2.930033          4.018076
 187         (B2)--V           2.930818          4.014154
 188         (B2)--V           2.962512          4.160284
 189         (A1)--V           2.998736          4.273023
 190         (B2)--V           3.024315          4.278451
 191         (A1)--V           3.223976          4.841855
 192         (B2)--V           3.251885          4.827841
 193         (A1)--V           3.264881          4.872653
 194         (B2)--V           3.286495          4.969510
 195         (B1)--V           3.291834          4.851288
 196         (A1)--V           3.317055          5.097510
 197         (A2)--V           3.347104          4.902233
 198         (B2)--V           3.362193          5.304724
 199         (A1)--V           3.424461          5.559138
 200         (B1)--V           3.424674          4.975664
 201         (B2)--V           3.473865          6.025623
 202         (A1)--V           3.480436          5.793628
 203         (A2)--V           3.510323          5.066734
 204         (B1)--V           3.567001          5.163601
 205         (A2)--V           3.586988          5.193741
 206         (B1)--V           3.587733          5.207748
 207         (A1)--V           3.935215          9.436251
 208         (B2)--V           3.977515          9.508180
 209         (A1)--V           4.245608         10.058386
 210         (B2)--V           4.324898         10.133974
 211         (A1)--V           4.415466         10.189407
 212         (B2)--V           4.500217         10.200035
 213         (A1)--V           4.579608         10.200274
 214         (B2)--V           4.675772         10.344684
 215         (A1)--V           4.782576         10.560275
 Total kinetic energy from orbitals= 4.228522041971D+02
 No NMR shielding tensors so no spin-rotation constants.
 Leave Link  601 at Mon Mar 14 13:54:45 2022, MaxMem=  536870912 cpu:       2.5
 (Enter /opt/gridunesp/dist/gaussian/g09/l9999.exe)

 Test job not archived.
 1\1\GINC-NODE025\FOpt\RB3LYP\6-31G(d,p)\C7H16O2\RHEINHEIMER\14-Mar-202
 2\0\\#P B3LYP/6-31G(d,p) # Opt=tight SCRF=(Solvent=Water) # Gfinput IO
 P(6/7=3) Pop=full Density Test # Units(Ang,Deg)\\peg-6.xyz\\0,1\O,-0.1
 592522593,0.,0.0736070386\H,-0.1765123655,0.,1.0398591385\C,1.21047198
 96,0.,-0.3331603484\C,1.2582332779,0.,-1.8553929237\H,1.7357373888,0.8
 860863953,0.0566868834\H,1.7357373888,-0.8860863953,0.0566868834\C,2.6
 875839225,0.,-2.4096646981\H,0.7148079622,-0.8804232552,-2.2226489188\
 H,0.7148079622,0.8804232552,-2.2226489188\C,2.7402506173,0.,-3.9423495
 418\H,3.2272623272,0.8784650706,-2.0289776061\H,3.2272623272,-0.878465
 0706,-2.0289776061\C,4.1677284416,0.,-4.5028882754\H,2.2009005331,-0.8
 782970591,-4.3237307185\H,2.2009005331,0.8782970591,-4.3237307185\C,4.
 2138623147,0.,-6.0352498942\H,4.7065335726,0.8784650706,-4.1209661978\
 H,4.7065335726,-0.8784650706,-4.1209661978\C,5.6331207198,0.,-6.587679
 7393\H,3.6864712339,-0.8804232552,-6.425181539\H,3.6864712339,0.880423
 2552,-6.425181539\O,5.5600607869,0.,-8.01465783\H,6.1757579047,0.88608
 63953,-6.2223997243\H,6.1757579047,-0.8860863953,-6.2223997243\H,6.465
 3012063,0.,-8.3530079667\\Version=EM64L-G09RevA.02\State=1-A1\HF=-426.
 8449614\RMSD=9.363e-10\RMSF=7.523e-07\Dipole=1.1782803,0.,0.8331767\Qu
 adrupole=-0.4717724,-1.4133035,1.8850759,0.,-3.3331675,0.\PG=C02V [C2(
 C1),SGV(C6H2O2),SGV'(H2),X(H12)]\\@


 THE PROBLEM WITH THE LADDER OF SUCCESS IS YOU CAN'T
 CLIMB IT WHILE YOU'RE TWIDDLING YOUR THUMBS.
 Job cpu time:  0 days  0 hours 22 minutes 46.1 seconds.
 File lengths (MBytes):  RWF=    200 Int=      0 D2E=      0 Chk=      8 Scr=      2
 Normal termination of Gaussian 09 at Mon Mar 14 13:54:45 2022.
