 Entering Gaussian System, Link 0=g09
 Input=peg-1_opt_g09.com
 Output=peg-1_opt_g09.log
 Initial command:
 /opt/gridunesp/dist/gaussian/g09/l1.exe /store/rheinheimer/2838052/Gau-55507.inp -scrdir=/store/rheinheimer/2838052/
 Entering Link 1 = /opt/gridunesp/dist/gaussian/g09/l1.exe PID=     55509.
  
 Copyright (c) 1988,1990,1992,1993,1995,1998,2003,2009, Gaussian, Inc.
                  All Rights Reserved.
  
 This is part of the Gaussian(R) 09 program.  It is based on
 the Gaussian(R) 03 system (copyright 2003, Gaussian, Inc.),
 the Gaussian(R) 98 system (copyright 1998, Gaussian, Inc.),
 the Gaussian(R) 94 system (copyright 1995, Gaussian, Inc.),
 the Gaussian 92(TM) system (copyright 1992, Gaussian, Inc.),
 the Gaussian 90(TM) system (copyright 1990, Gaussian, Inc.),
 the Gaussian 88(TM) system (copyright 1988, Gaussian, Inc.),
 the Gaussian 86(TM) system (copyright 1986, Carnegie Mellon
 University), and the Gaussian 82(TM) system (copyright 1983,
 Carnegie Mellon University). Gaussian is a federally registered
 trademark of Gaussian, Inc.
  
 This software contains proprietary and confidential information,
 including trade secrets, belonging to Gaussian, Inc.
  
 This software is provided under written license and may be
 used, copied, transmitted, or stored only in accord with that
 written license.
  
 The following legend is applicable only to US Government
 contracts under FAR:
  
                    RESTRICTED RIGHTS LEGEND
  
 Use, reproduction and disclosure by the US Government is
 subject to restrictions as set forth in subparagraphs (a)
 and (c) of the Commercial Computer Software - Restricted
 Rights clause in FAR 52.227-19.
  
 Gaussian, Inc.
 340 Quinnipiac St., Bldg. 40, Wallingford CT 06492
  
  
 ---------------------------------------------------------------
 Warning -- This program may not be used in any manner that
 competes with the business of Gaussian, Inc. or will provide
 assistance to any competitor of Gaussian, Inc.  The licensee
 of this program is prohibited from giving any competitor of
 Gaussian, Inc. access to this program.  By using this program,
 the user acknowledges that Gaussian, Inc. is engaged in the
 business of creating and licensing software in the field of
 computational chemistry and represents and warrants to the
 licensee that it is not a competitor of Gaussian, Inc. and that
 it will not use this program in any manner prohibited above.
 ---------------------------------------------------------------
  

 Cite this work as:
 Gaussian 09, Revision A.02,
 M. J. Frisch, G. W. Trucks, H. B. Schlegel, G. E. Scuseria, 
 M. A. Robb, J. R. Cheeseman, G. Scalmani, V. Barone, B. Mennucci, 
 G. A. Petersson, H. Nakatsuji, M. Caricato, X. Li, H. P. Hratchian, 
 A. F. Izmaylov, J. Bloino, G. Zheng, J. L. Sonnenberg, M. Hada, 
 M. Ehara, K. Toyota, R. Fukuda, J. Hasegawa, M. Ishida, T. Nakajima, 
 Y. Honda, O. Kitao, H. Nakai, T. Vreven, J. A. Montgomery, Jr., 
 J. E. Peralta, F. Ogliaro, M. Bearpark, J. J. Heyd, E. Brothers, 
 K. N. Kudin, V. N. Staroverov, R. Kobayashi, J. Normand, 
 K. Raghavachari, A. Rendell, J. C. Burant, S. S. Iyengar, J. Tomasi, 
 M. Cossi, N. Rega, J. M. Millam, M. Klene, J. E. Knox, J. B. Cross, 
 V. Bakken, C. Adamo, J. Jaramillo, R. Gomperts, R. E. Stratmann, 
 O. Yazyev, A. J. Austin, R. Cammi, C. Pomelli, J. W. Ochterski, 
 R. L. Martin, K. Morokuma, V. G. Zakrzewski, G. A. Voth, 
 P. Salvador, J. J. Dannenberg, S. Dapprich, A. D. Daniels, 
 O. Farkas, J. B. Foresman, J. V. Ortiz, J. Cioslowski, 
 and D. J. Fox, Gaussian, Inc., Wallingford CT, 2009.
 
 ******************************************
 Gaussian 09:  EM64L-G09RevA.02 11-Jun-2009
                14-Mar-2022 
 ******************************************
 %nproc=8
 Will use up to    8 processors via shared memory.
 %Mem=4GB
 ----------------------------------------------------------------------
 #P B3LYP/6-31G(d,p) # Opt=tight SCRF=(Solvent=Water) # Gfinput IOP(6/7
 =3) Pop=full Density Test # Units(Ang,Deg)
 ----------------------------------------------------------------------
 1/7=10,14=-1,18=20,19=15,26=3,38=1/1,3;
 2/9=110,12=2,17=6,18=5,40=1/2;
 3/5=1,6=6,7=101,11=2,16=1,24=10,25=1,30=1,70=2201,71=1,72=1,74=-5/1,2,3;
 4//1;
 5/5=2,38=5,53=1/2;
 6/7=3,22=-1,28=1/1;
 7//1,2,3,16;
 1/7=10,14=-1,18=20,19=15/3(2);
 2/9=110/2;
 99//99;
 2/9=110/2;
 3/5=1,6=6,7=101,11=2,16=1,25=1,30=1,70=2205,71=1,72=1,74=-5/1,2,3;
 4/5=5,16=3/1;
 5/5=2,38=5,53=1/2;
 7//1,2,3,16;
 1/7=10,14=-1,18=20,19=15/3(-5);
 2/9=110/2;
 6/7=3,19=2,22=-1,28=1/1;
 99/9=1/99;
 Leave Link    1 at Mon Mar 14 13:44:55 2022, MaxMem=  536870912 cpu:       0.4
 (Enter /opt/gridunesp/dist/gaussian/g09/l101.exe)
 ---------
 peg-1.xyz
 ---------
 Symbolic Z-matrix:
 Charge =  0 Multiplicity = 1
 O                     0.        0.        0. 
 H                     0.        0.        0.947 
 C                     1.30108   0.       -0.45999 
 C                     1.30108   0.       -1.95999 
 H                     1.80548   0.87365  -0.10333 
 H                     1.80548  -0.87365  -0.10333 
 O                     2.60216   0.       -2.41999 
 H                     0.79668  -0.87365  -2.31666 
 H                     0.79668   0.87365  -2.31666 
 H                     2.60217   0.       -3.36699 
 
 NAtoms=     10 NQM=     10 NQMF=      0 NMic=      0 NMicF=      0 NTot=     10.
                    Isotopes and Nuclear Properties:
 (Nuclear quadrupole moments (NQMom) in fm**2, nuclear magnetic moments (NMagM)
  in nuclear magnetons)

  Atom         1           2           3           4           5           6           7           8           9          10
 IAtWgt=          16           1          12          12           1           1          16           1           1           1
 AtmWgt=  15.9949146   1.0078250  12.0000000  12.0000000   1.0078250   1.0078250  15.9949146   1.0078250   1.0078250   1.0078250
 NucSpn=           0           1           0           0           1           1           0           1           1           1
 AtZEff=   0.0000000   0.0000000   0.0000000   0.0000000   0.0000000   0.0000000   0.0000000   0.0000000   0.0000000   0.0000000
 NQMom=    0.0000000   0.0000000   0.0000000   0.0000000   0.0000000   0.0000000   0.0000000   0.0000000   0.0000000   0.0000000
 NMagM=    0.0000000   2.7928460   0.0000000   0.0000000   2.7928460   2.7928460   0.0000000   2.7928460   2.7928460   2.7928460
 Leave Link  101 at Mon Mar 14 13:44:55 2022, MaxMem=  536870912 cpu:       0.6
 (Enter /opt/gridunesp/dist/gaussian/g09/l103.exe)

 GradGradGradGradGradGradGradGradGradGradGradGradGradGradGradGradGradGrad
 Berny optimization.
 Initialization pass.
                           ----------------------------
                           !    Initial Parameters    !
                           ! (Angstroms and Degrees)  !
 --------------------------                            --------------------------
 ! Name  Definition              Value          Derivative Info.                !
 --------------------------------------------------------------------------------
 ! R1    R(1,2)                  0.947          estimate D2E/DX2                !
 ! R2    R(1,3)                  1.38           estimate D2E/DX2                !
 ! R3    R(3,4)                  1.5            estimate D2E/DX2                !
 ! R4    R(3,5)                  1.07           estimate D2E/DX2                !
 ! R5    R(3,6)                  1.07           estimate D2E/DX2                !
 ! R6    R(4,7)                  1.38           estimate D2E/DX2                !
 ! R7    R(4,8)                  1.07           estimate D2E/DX2                !
 ! R8    R(4,9)                  1.07           estimate D2E/DX2                !
 ! R9    R(7,10)                 0.947          estimate D2E/DX2                !
 ! A1    A(2,1,3)              109.4708         estimate D2E/DX2                !
 ! A2    A(1,3,4)              109.4708         estimate D2E/DX2                !
 ! A3    A(1,3,5)              109.4715         estimate D2E/DX2                !
 ! A4    A(1,3,6)              109.4715         estimate D2E/DX2                !
 ! A5    A(4,3,5)              109.4709         estimate D2E/DX2                !
 ! A6    A(4,3,6)              109.4709         estimate D2E/DX2                !
 ! A7    A(5,3,6)              109.4717         estimate D2E/DX2                !
 ! A8    A(3,4,7)              109.4712         estimate D2E/DX2                !
 ! A9    A(3,4,8)              109.4714         estimate D2E/DX2                !
 ! A10   A(3,4,9)              109.4714         estimate D2E/DX2                !
 ! A11   A(7,4,8)              109.4711         estimate D2E/DX2                !
 ! A12   A(7,4,9)              109.4711         estimate D2E/DX2                !
 ! A13   A(8,4,9)              109.4712         estimate D2E/DX2                !
 ! A14   A(4,7,10)             109.4718         estimate D2E/DX2                !
 ! D1    D(2,1,3,4)            180.0            estimate D2E/DX2                !
 ! D2    D(2,1,3,5)            -60.0005         estimate D2E/DX2                !
 ! D3    D(2,1,3,6)             60.0005         estimate D2E/DX2                !
 ! D4    D(1,3,4,7)            180.0            estimate D2E/DX2                !
 ! D5    D(1,3,4,8)            -60.0001         estimate D2E/DX2                !
 ! D6    D(1,3,4,9)             60.0001         estimate D2E/DX2                !
 ! D7    D(5,3,4,7)             60.0001         estimate D2E/DX2                !
 ! D8    D(5,3,4,8)            180.0            estimate D2E/DX2                !
 ! D9    D(5,3,4,9)            -59.9998         estimate D2E/DX2                !
 ! D10   D(6,3,4,7)            -60.0001         estimate D2E/DX2                !
 ! D11   D(6,3,4,8)             59.9998         estimate D2E/DX2                !
 ! D12   D(6,3,4,9)            180.0            estimate D2E/DX2                !
 ! D13   D(3,4,7,10)           180.0            estimate D2E/DX2                !
 ! D14   D(8,4,7,10)            59.9999         estimate D2E/DX2                !
 ! D15   D(9,4,7,10)           -59.9999         estimate D2E/DX2                !
 --------------------------------------------------------------------------------
 Trust Radius=3.00D-01 FncErr=1.00D-07 GrdErr=1.00D-06
 Number of steps in this run=  48 maximum allowed number of steps= 100.
 GradGradGradGradGradGradGradGradGradGradGradGradGradGradGradGradGradGrad

 Leave Link  103 at Mon Mar 14 13:44:55 2022, MaxMem=  536870912 cpu:       0.1
 (Enter /opt/gridunesp/dist/gaussian/g09/l202.exe)
                          Input orientation:                          
 ---------------------------------------------------------------------
 Center     Atomic      Atomic             Coordinates (Angstroms)
 Number     Number       Type             X           Y           Z
 ---------------------------------------------------------------------
      1          8           0        0.000000    0.000000    0.000000
      2          1           0        0.000000    0.000000    0.947000
      3          6           0        1.301080    0.000000   -0.459990
      4          6           0        1.301080    0.000000   -1.959990
      5          1           0        1.805480    0.873650   -0.103330
      6          1           0        1.805480   -0.873650   -0.103330
      7          8           0        2.602160    0.000000   -2.419990
      8          1           0        0.796680   -0.873650   -2.316660
      9          1           0        0.796680    0.873650   -2.316660
     10          1           0        2.602170    0.000000   -3.366990
 ---------------------------------------------------------------------
                    Distance matrix (angstroms):
                    1          2          3          4          5
     1  O    0.000000
     2  H    0.947000   0.000000
     3  C    1.380000   1.916359   0.000000
     4  C    2.352524   3.184870   1.500000   0.000000
     5  H    2.008407   2.264115   1.069995   2.113024   0.000000
     6  H    2.008407   2.264115   1.069995   2.113024   1.747300
     7  O    3.553532   4.255333   2.352533   1.380003   2.600938
     8  H    2.600938   3.471230   2.113033   1.069999   2.994923
     9  H    2.600938   3.471230   2.113033   1.069999   2.432387
    10  H    4.255339   5.038035   3.184884   1.916373   3.471233
                    6          7          8          9         10
     6  H    0.000000
     7  O    2.600938   0.000000
     8  H    2.432387   2.008407   0.000000
     9  H    2.994923   2.008407   1.747300   0.000000
    10  H    3.471233   0.947000   2.264123   2.264123   0.000000
 Stoichiometry    C2H6O2
 Framework group  CS[SG(C2H2O2),X(H4)]
 Deg. of freedom    15
 Full point group                 CS      NOp   2
 Largest Abelian subgroup         CS      NOp   2
 Largest concise Abelian subgroup CS      NOp   2
                         Standard orientation:                         
 ---------------------------------------------------------------------
 Center     Atomic      Atomic             Coordinates (Angstroms)
 Number     Number       Type             X           Y           Z
 ---------------------------------------------------------------------
      1          8           0       -1.301081   -1.209993    0.000000
      2          1           0       -1.301081   -2.156993    0.000000
      3          6           0        0.000000   -0.750003    0.000000
      4          6           0        0.000000    0.749997    0.000000
      5          1           0        0.504399   -1.106663    0.873650
      6          1           0        0.504399   -1.106663   -0.873650
      7          8           0        1.301080    1.209996    0.000000
      8          1           0       -0.504400    1.106667   -0.873650
      9          1           0       -0.504400    1.106667    0.873650
     10          1           0        1.301091    2.156996    0.000000
 ---------------------------------------------------------------------
 Rotational constants (GHZ):     32.9596054      4.0735931      3.7929519
 Leave Link  202 at Mon Mar 14 13:44:56 2022, MaxMem=  536870912 cpu:       0.1
 (Enter /opt/gridunesp/dist/gaussian/g09/l301.exe)
 Standard basis: 6-31G(d,p) (6D, 7F)
 Ernie: Thresh=  0.10000D-02 Tol=  0.10000D-05 Strict=F.
 AO basis set in the form of general basis input (Overlap normalization):
      1 0
 S   6 1.00       0.000000000000
      0.5484671660D+04  0.1831074430D-02
      0.8252349460D+03  0.1395017220D-01
      0.1880469580D+03  0.6844507810D-01
      0.5296450000D+02  0.2327143360D+00
      0.1689757040D+02  0.4701928980D+00
      0.5799635340D+01  0.3585208530D+00
 SP   3 1.00       0.000000000000
      0.1553961625D+02 -0.1107775495D+00  0.7087426823D-01
      0.3599933586D+01 -0.1480262627D+00  0.3397528391D+00
      0.1013761750D+01  0.1130767015D+01  0.7271585773D+00
 SP   1 1.00       0.000000000000
      0.2700058226D+00  0.1000000000D+01  0.1000000000D+01
 D   1 1.00       0.000000000000
      0.8000000000D+00  0.1000000000D+01
 ****
      2 0
 S   3 1.00       0.000000000000
      0.1873113696D+02  0.3349460434D-01
      0.2825394365D+01  0.2347269535D+00
      0.6401216923D+00  0.8137573261D+00
 S   1 1.00       0.000000000000
      0.1612777588D+00  0.1000000000D+01
 P   1 1.00       0.000000000000
      0.1100000000D+01  0.1000000000D+01
 ****
      3 0
 S   6 1.00       0.000000000000
      0.3047524880D+04  0.1834737132D-02
      0.4573695180D+03  0.1403732281D-01
      0.1039486850D+03  0.6884262226D-01
      0.2921015530D+02  0.2321844432D+00
      0.9286662960D+01  0.4679413484D+00
      0.3163926960D+01  0.3623119853D+00
 SP   3 1.00       0.000000000000
      0.7868272350D+01 -0.1193324198D+00  0.6899906659D-01
      0.1881288540D+01 -0.1608541517D+00  0.3164239610D+00
      0.5442492580D+00  0.1143456438D+01  0.7443082909D+00
 SP   1 1.00       0.000000000000
      0.1687144782D+00  0.1000000000D+01  0.1000000000D+01
 D   1 1.00       0.000000000000
      0.8000000000D+00  0.1000000000D+01
 ****
      4 0
 S   6 1.00       0.000000000000
      0.3047524880D+04  0.1834737132D-02
      0.4573695180D+03  0.1403732281D-01
      0.1039486850D+03  0.6884262226D-01
      0.2921015530D+02  0.2321844432D+00
      0.9286662960D+01  0.4679413484D+00
      0.3163926960D+01  0.3623119853D+00
 SP   3 1.00       0.000000000000
      0.7868272350D+01 -0.1193324198D+00  0.6899906659D-01
      0.1881288540D+01 -0.1608541517D+00  0.3164239610D+00
      0.5442492580D+00  0.1143456438D+01  0.7443082909D+00
 SP   1 1.00       0.000000000000
      0.1687144782D+00  0.1000000000D+01  0.1000000000D+01
 D   1 1.00       0.000000000000
      0.8000000000D+00  0.1000000000D+01
 ****
      5 0
 S   3 1.00       0.000000000000
      0.1873113696D+02  0.3349460434D-01
      0.2825394365D+01  0.2347269535D+00
      0.6401216923D+00  0.8137573261D+00
 S   1 1.00       0.000000000000
      0.1612777588D+00  0.1000000000D+01
 P   1 1.00       0.000000000000
      0.1100000000D+01  0.1000000000D+01
 ****
      6 0
 S   3 1.00       0.000000000000
      0.1873113696D+02  0.3349460434D-01
      0.2825394365D+01  0.2347269535D+00
      0.6401216923D+00  0.8137573261D+00
 S   1 1.00       0.000000000000
      0.1612777588D+00  0.1000000000D+01
 P   1 1.00       0.000000000000
      0.1100000000D+01  0.1000000000D+01
 ****
      7 0
 S   6 1.00       0.000000000000
      0.5484671660D+04  0.1831074430D-02
      0.8252349460D+03  0.1395017220D-01
      0.1880469580D+03  0.6844507810D-01
      0.5296450000D+02  0.2327143360D+00
      0.1689757040D+02  0.4701928980D+00
      0.5799635340D+01  0.3585208530D+00
 SP   3 1.00       0.000000000000
      0.1553961625D+02 -0.1107775495D+00  0.7087426823D-01
      0.3599933586D+01 -0.1480262627D+00  0.3397528391D+00
      0.1013761750D+01  0.1130767015D+01  0.7271585773D+00
 SP   1 1.00       0.000000000000
      0.2700058226D+00  0.1000000000D+01  0.1000000000D+01
 D   1 1.00       0.000000000000
      0.8000000000D+00  0.1000000000D+01
 ****
      8 0
 S   3 1.00       0.000000000000
      0.1873113696D+02  0.3349460434D-01
      0.2825394365D+01  0.2347269535D+00
      0.6401216923D+00  0.8137573261D+00
 S   1 1.00       0.000000000000
      0.1612777588D+00  0.1000000000D+01
 P   1 1.00       0.000000000000
      0.1100000000D+01  0.1000000000D+01
 ****
      9 0
 S   3 1.00       0.000000000000
      0.1873113696D+02  0.3349460434D-01
      0.2825394365D+01  0.2347269535D+00
      0.6401216923D+00  0.8137573261D+00
 S   1 1.00       0.000000000000
      0.1612777588D+00  0.1000000000D+01
 P   1 1.00       0.000000000000
      0.1100000000D+01  0.1000000000D+01
 ****
     10 0
 S   3 1.00       0.000000000000
      0.1873113696D+02  0.3349460434D-01
      0.2825394365D+01  0.2347269535D+00
      0.6401216923D+00  0.8137573261D+00
 S   1 1.00       0.000000000000
      0.1612777588D+00  0.1000000000D+01
 P   1 1.00       0.000000000000
      0.1100000000D+01  0.1000000000D+01
 ****

 There are    62 symmetry adapted basis functions of A'  symmetry.
 There are    28 symmetry adapted basis functions of A"  symmetry.
 Integral buffers will be    131072 words long.
 Raffenetti 2 integral format.
 Two-electron integral symmetry is turned on.
    90 basis functions,   154 primitive gaussians,    90 cartesian basis functions
    17 alpha electrons       17 beta electrons
       nuclear repulsion energy       132.7410137267 Hartrees.
 IExCor=  402 DFT=T Ex+Corr=B3LYP ExCW=0 ScaHFX=  0.200000
 ScaDFX=  0.800000  0.720000  1.000000  0.810000 ScalE2=  1.000000  1.000000
 IRadAn=      0 IRanWt=     -1 IRanGd=            0 ICorTp=0
 NAtoms=   10 NActive=   10 NUniq=    8 SFac= 1.17D+00 NAtFMM=   80 NAOKFM=F Big=F
 ------------------------------------------------------------------------------
 Polarizable Continuum Model (PCM)
 =================================
 Model                : PCM.
 Atomic radii         : UFF (Universal Force Field).
 Polarization charges : Total charges.
 Charge compensation  : None.
 Solution method      : Matrix inversion.
 Cavity type          : Scaled VdW (van der Waals Surface) (Alpha=1.100).
 Cavity algorithm     : GePol (No added spheres)
                        Default sphere list used, NSphG=   10.
                        Lebedev-Laikov grids with approx.  5.0 points / Ang**2.
                        Smoothing algorithm: Karplus/York (Gamma=1.0000).
                        Polarization charges: spherical gaussians, with
                                              point-specific exponents (IZeta= 3).
                        Self-potential: point-specific (ISelfS= 7).
                        Self-field    : sphere-specific E.n sum rule (ISelfD= 2).
 1st derivatives      : Analytical E(r).r(x)/FMM algorithm (CHGder, D1EAlg=3).
                        Cavity 1st derivative terms included.
 Solvent              : Water, Eps=  78.355300 Eps(inf)=   1.777849
 ------------------------------------------------------------------------------
 Spheres list:
 ISph  on   Nord    Re0     Alpha      Xe            Ye            Ze
    1   O      1    1.750   1.100     -1.301081     -1.209993      0.000000
    2   H      2    1.443   1.100     -1.301081     -2.156993      0.000000
    3   C      3    1.926   1.100      0.000000     -0.750003      0.000000
    4   C      4    1.926   1.100      0.000000      0.749997      0.000000
    5   H      5    1.443   1.100      0.504399     -1.106663      0.873650
    6   H      6    1.443   1.100      0.504399     -1.106663     -0.873650
    7   O      7    1.750   1.100      1.301080      1.209996      0.000000
    8   H      8    1.443   1.100     -0.504400      1.106667     -0.873650
    9   H      9    1.443   1.100     -0.504400      1.106667      0.873650
   10   H     10    1.443   1.100      1.301091      2.156996      0.000000
 ------------------------------------------------------------------------------
 GePol: Number of generator spheres                  =      10
 GePol: Total number of spheres                      =      10
 GePol: Number of exposed spheres                    =      10 (100.00%)
 GePol: Number of points                             =     910
 GePol: Average weight of points                     =       0.13
 GePol: Minimum weight of points                     =   0.75D-05
 GePol: Maximum weight of points                     =    0.20299
 GePol: Number of points with low weight             =      28
 GePol: Fraction of low-weight points (<1% of avg)   =       3.08%
 GePol: Cavity surface area                          =    119.332 Ang**2
 GePol: Cavity volume                                =    101.636 Ang**3
 Leave Link  301 at Mon Mar 14 13:44:56 2022, MaxMem=  536870912 cpu:       0.4
 (Enter /opt/gridunesp/dist/gaussian/g09/l302.exe)
 NPDir=0 NMtPBC=     1 NCelOv=     1 NCel=       1 NClECP=     1 NCelD=      1
         NCelK=      1 NCelE2=     1 NClLst=     1 CellRange=     0.0.
 One-electron integrals computed using PRISM.
 One-electron integral symmetry used in STVInt
 NBasis=    90 RedAO= T  NBF=    62    28
 NBsUse=    90 1.00D-06 NBFU=    62    28
 Precomputing XC quadrature grid using
 IXCGrd= 2 IRadAn=           0 IRanWt=          -1 IRanGd=           0 AccXCQ= 1.00D-10.
 NRdTot=     622 NPtTot=       78856 NUsed=       83353 NTot=       83385
 NSgBfM=    90    90    90    90    90 NAtAll=    10    10.
 Leave Link  302 at Mon Mar 14 13:44:56 2022, MaxMem=  536870912 cpu:       1.0
 (Enter /opt/gridunesp/dist/gaussian/g09/l303.exe)
 DipDrv:  MaxL=1.
 Leave Link  303 at Mon Mar 14 13:44:56 2022, MaxMem=  536870912 cpu:       0.2
 (Enter /opt/gridunesp/dist/gaussian/g09/l401.exe)
 Harris functional with IExCor=  402 diagonalized for initial guess.
 ExpMin= 1.61D-01 ExpMax= 5.48D+03 ExpMxC= 8.25D+02 IAcc=1 IRadAn=         1 AccDes= 0.00D+00
 HarFok:  IExCor=  402 AccDes= 0.00D+00 IRadAn=         1 IDoV= 1
 ScaDFX=  1.000000  1.000000  1.000000  1.000000
 FoFCou: FMM=F IPFlag=           0 FMFlag=      100000 FMFlg1=           0
         NFxFlg=           0 DoJE=T BraDBF=F KetDBF=T FulRan=T
         Omega=  0.000000  0.000000  1.000000  0.000000  0.000000 ICntrl=     500 IOpCl=  0
         NMat0=    1 NMatS0=    1 NMatT0=    0 NMatD0=    1 NMtDS0=    0 NMtDT0=    0
         I1Cent=           4 NGrid=           0.
 Petite list used in FoFCou.
 Harris En= -230.304356138640    
 Initial guess orbital symmetries:
       Occupied  (A') (A') (A') (A') (A') (A') (A') (A') (A') (A")
                 (A') (A') (A") (A') (A') (A") (A")
       Virtual   (A') (A') (A") (A') (A') (A') (A') (A") (A') (A')
                 (A') (A') (A") (A') (A") (A') (A') (A") (A') (A")
                 (A') (A') (A") (A') (A') (A') (A") (A') (A") (A')
                 (A') (A') (A') (A") (A") (A") (A') (A') (A') (A')
                 (A") (A") (A') (A") (A") (A') (A") (A') (A') (A')
                 (A") (A') (A') (A") (A") (A") (A') (A') (A') (A')
                 (A") (A') (A') (A') (A') (A") (A') (A') (A") (A')
                 (A') (A') (A')
 The electronic state of the initial guess is 1-A'.
 Leave Link  401 at Mon Mar 14 13:44:56 2022, MaxMem=  536870912 cpu:       1.2
 (Enter /opt/gridunesp/dist/gaussian/g09/l502.exe)
 Closed shell SCF:
 Requested convergence on RMS density matrix=1.00D-08 within 128 cycles.
 Requested convergence on MAX density matrix=1.00D-06.
 Requested convergence on             energy=1.00D-06.
 No special actions if energy rises.
 Using DIIS extrapolation, IDIIS=  1040.
 Integral symmetry usage will be decided dynamically.
        83250 words used for storage of precomputed grid.
 Keep R1 ints in memory in canonical form, NReq=12410409.
 IEnd=      127224 IEndB=      127224 NGot=   536870912 MDV=   528381931
 LenX=   528381931 LenY=   528373390
 Symmetry not used in FoFDir.
 MinBra= 0 MaxBra= 2 Meth= 1.
 IRaf=       0 NMat=   1 IRICut=       1 DoRegI=T DoRafI=F ISym2E= 0 JSym2E=0.

 Cycle   1  Pass 1  IDiag  1:
 E= -230.118736372882    
 DIIS: error= 3.77D-02 at cycle   1 NSaved=   1.
 NSaved= 1 IEnMin= 1 EnMin= -230.118736372882     IErMin= 1 ErrMin= 3.77D-02
 ErrMax= 3.77D-02 EMaxC= 1.00D-01 BMatC= 1.58D-01 BMatP= 1.58D-01
 IDIUse=3 WtCom= 6.23D-01 WtEn= 3.77D-01
 Coeff-Com:  0.100D+01
 Coeff-En:   0.100D+01
 Coeff:      0.100D+01
 Gap=     0.313 Goal=   None    Shift=    0.000
 GapD=    0.313 DampG=1.000 DampE=0.500 DampFc=0.5000 IDamp=-1.
 Damping current iteration by 5.00D-01
 RMSDP=8.88D-03 MaxDP=1.36D-01              OVMax= 1.44D-01

 Cycle   2  Pass 1  IDiag  1:
 E= -230.175884193482     Delta-E=       -0.057147820601 Rises=F Damp=T
 DIIS: error= 7.18D-03 at cycle   2 NSaved=   2.
 NSaved= 2 IEnMin= 2 EnMin= -230.175884193482     IErMin= 2 ErrMin= 7.18D-03
 ErrMax= 7.18D-03 EMaxC= 1.00D-01 BMatC= 7.51D-03 BMatP= 1.58D-01
 IDIUse=3 WtCom= 9.28D-01 WtEn= 7.18D-02
 Coeff-Com:  0.108D+00 0.892D+00
 Coeff-En:   0.157D+00 0.843D+00
 Coeff:      0.112D+00 0.888D+00
 Gap=     0.345 Goal=   None    Shift=    0.000
 RMSDP=1.20D-03 MaxDP=1.05D-02 DE=-5.71D-02 OVMax= 8.11D-02

 Cycle   3  Pass 1  IDiag  1:
 E= -230.251472327203     Delta-E=       -0.075588133720 Rises=F Damp=F
 DIIS: error= 3.96D-03 at cycle   3 NSaved=   3.
 NSaved= 3 IEnMin= 3 EnMin= -230.251472327203     IErMin= 3 ErrMin= 3.96D-03
 ErrMax= 3.96D-03 EMaxC= 1.00D-01 BMatC= 1.38D-03 BMatP= 7.51D-03
 IDIUse=3 WtCom= 9.60D-01 WtEn= 3.96D-02
 Coeff-Com:  0.123D-01 0.267D+00 0.721D+00
 Coeff-En:   0.000D+00 0.000D+00 0.100D+01
 Coeff:      0.118D-01 0.257D+00 0.732D+00
 Gap=     0.342 Goal=   None    Shift=    0.000
 RMSDP=4.85D-04 MaxDP=8.54D-03 DE=-7.56D-02 OVMax= 9.45D-03

 Cycle   4  Pass 1  IDiag  1:
 E= -230.252186768483     Delta-E=       -0.000714441280 Rises=F Damp=F
 DIIS: error= 2.11D-03 at cycle   4 NSaved=   4.
 NSaved= 4 IEnMin= 4 EnMin= -230.252186768483     IErMin= 4 ErrMin= 2.11D-03
 ErrMax= 2.11D-03 EMaxC= 1.00D-01 BMatC= 5.08D-04 BMatP= 1.38D-03
 IDIUse=3 WtCom= 9.79D-01 WtEn= 2.11D-02
 Coeff-Com:  0.214D-03 0.551D-01 0.388D+00 0.557D+00
 Coeff-En:   0.000D+00 0.000D+00 0.270D+00 0.730D+00
 Coeff:      0.209D-03 0.539D-01 0.385D+00 0.561D+00
 Gap=     0.342 Goal=   None    Shift=    0.000
 RMSDP=2.00D-04 MaxDP=3.74D-03 DE=-7.14D-04 OVMax= 4.25D-03

 Cycle   5  Pass 1  IDiag  1:
 E= -230.252612453756     Delta-E=       -0.000425685273 Rises=F Damp=F
 DIIS: error= 2.45D-04 at cycle   5 NSaved=   5.
 NSaved= 5 IEnMin= 5 EnMin= -230.252612453756     IErMin= 5 ErrMin= 2.45D-04
 ErrMax= 2.45D-04 EMaxC= 1.00D-01 BMatC= 3.90D-06 BMatP= 5.08D-04
 IDIUse=3 WtCom= 9.98D-01 WtEn= 2.45D-03
 Coeff-Com: -0.254D-05-0.681D-03 0.579D-01 0.137D+00 0.806D+00
 Coeff-En:   0.000D+00 0.000D+00 0.000D+00 0.000D+00 0.100D+01
 Coeff:     -0.253D-05-0.679D-03 0.578D-01 0.136D+00 0.806D+00
 Gap=     0.342 Goal=   None    Shift=    0.000
 RMSDP=1.63D-05 MaxDP=1.97D-04 DE=-4.26D-04 OVMax= 3.45D-04

 Cycle   6  Pass 1  IDiag  1:
 E= -230.252615635447     Delta-E=       -0.000003181691 Rises=F Damp=F
 DIIS: error= 1.01D-05 at cycle   6 NSaved=   6.
 NSaved= 6 IEnMin= 6 EnMin= -230.252615635447     IErMin= 6 ErrMin= 1.01D-05
 ErrMax= 1.01D-05 EMaxC= 1.00D-01 BMatC= 1.05D-08 BMatP= 3.90D-06
 IDIUse=1 WtCom= 1.00D+00 WtEn= 0.00D+00
 Coeff-Com:  0.943D-04-0.633D-03 0.427D-02 0.128D-01 0.997D-01 0.884D+00
 Coeff:      0.943D-04-0.633D-03 0.427D-02 0.128D-01 0.997D-01 0.884D+00
 Gap=     0.342 Goal=   None    Shift=    0.000
 RMSDP=1.35D-06 MaxDP=1.62D-05 DE=-3.18D-06 OVMax= 2.27D-05

 Cycle   7  Pass 1  IDiag  1:
 E= -230.252615644403     Delta-E=       -0.000000008957 Rises=F Damp=F
 DIIS: error= 1.78D-06 at cycle   7 NSaved=   7.
 NSaved= 7 IEnMin= 7 EnMin= -230.252615644403     IErMin= 7 ErrMin= 1.78D-06
 ErrMax= 1.78D-06 EMaxC= 1.00D-01 BMatC= 2.80D-10 BMatP= 1.05D-08
 IDIUse=1 WtCom= 1.00D+00 WtEn= 0.00D+00
 Coeff-Com:  0.183D-04-0.642D-04-0.647D-03-0.811D-03-0.314D-02 0.128D+00
 Coeff-Com:  0.876D+00
 Coeff:      0.183D-04-0.642D-04-0.647D-03-0.811D-03-0.314D-02 0.128D+00
 Coeff:      0.876D+00
 Gap=     0.342 Goal=   None    Shift=    0.000
 RMSDP=1.71D-07 MaxDP=1.68D-06 DE=-8.96D-09 OVMax= 3.50D-06

 Cycle   8  Pass 1  IDiag  1:
 E= -230.252615644643     Delta-E=       -0.000000000239 Rises=F Damp=F
 DIIS: error= 2.46D-07 at cycle   8 NSaved=   8.
 NSaved= 8 IEnMin= 8 EnMin= -230.252615644643     IErMin= 8 ErrMin= 2.46D-07
 ErrMax= 2.46D-07 EMaxC= 1.00D-01 BMatC= 5.04D-12 BMatP= 2.80D-10
 IDIUse=1 WtCom= 1.00D+00 WtEn= 0.00D+00
 Coeff-Com:  0.199D-06 0.131D-05-0.157D-03-0.248D-03-0.186D-02 0.467D-02
 Coeff-Com:  0.105D+00 0.893D+00
 Coeff:      0.199D-06 0.131D-05-0.157D-03-0.248D-03-0.186D-02 0.467D-02
 Coeff:      0.105D+00 0.893D+00
 Gap=     0.342 Goal=   None    Shift=    0.000
 RMSDP=2.16D-08 MaxDP=3.09D-07 DE=-2.39D-10 OVMax= 4.73D-07

 Cycle   9  Pass 1  IDiag  1:
 E= -230.252615644648     Delta-E=       -0.000000000005 Rises=F Damp=F
 DIIS: error= 3.45D-08 at cycle   9 NSaved=   9.
 NSaved= 9 IEnMin= 9 EnMin= -230.252615644648     IErMin= 9 ErrMin= 3.45D-08
 ErrMax= 3.45D-08 EMaxC= 1.00D-01 BMatC= 7.78D-14 BMatP= 5.04D-12
 IDIUse=1 WtCom= 1.00D+00 WtEn= 0.00D+00
 Coeff-Com: -0.325D-06 0.135D-05-0.210D-04-0.320D-04-0.294D-03-0.646D-03
 Coeff-Com:  0.855D-02 0.182D+00 0.811D+00
 Coeff:     -0.325D-06 0.135D-05-0.210D-04-0.320D-04-0.294D-03-0.646D-03
 Coeff:      0.855D-02 0.182D+00 0.811D+00
 Gap=     0.342 Goal=   None    Shift=    0.000
 RMSDP=2.72D-09 MaxDP=2.72D-08 DE=-5.17D-12 OVMax= 5.64D-08

 Error on total polarization charges =  0.00462
 SCF Done:  E(RB3LYP) =  -230.252615645     A.U. after    9 cycles
             Convg  =    0.2723D-08             -V/T =  2.0068
 KE= 2.286996763098D+02 PE=-8.058339602440D+02 EE= 2.141406545629D+02
 Leave Link  502 at Mon Mar 14 13:44:59 2022, MaxMem=  536870912 cpu:      21.5
 (Enter /opt/gridunesp/dist/gaussian/g09/l601.exe)
 Copying SCF densities to generalized density rwf, IOpCl= 0 IROHF=0.

 **********************************************************************

            Population analysis using the SCF density.

 **********************************************************************

 Orbital symmetries:
       Occupied  (A') (A') (A') (A') (A') (A') (A') (A') (A') (A")
                 (A') (A') (A") (A') (A') (A") (A")
       Virtual   (A') (A') (A') (A") (A') (A') (A") (A') (A') (A')
                 (A') (A") (A') (A') (A") (A') (A') (A") (A') (A")
                 (A') (A') (A") (A') (A') (A') (A") (A') (A') (A")
                 (A') (A') (A') (A") (A") (A") (A') (A') (A') (A')
                 (A") (A") (A') (A") (A") (A') (A") (A') (A') (A')
                 (A") (A') (A') (A") (A") (A") (A') (A') (A') (A')
                 (A") (A') (A') (A') (A') (A") (A') (A') (A") (A')
                 (A') (A') (A')
 The electronic state is 1-A'.
 Alpha  occ. eigenvalues --  -19.13995 -19.13995 -10.21663 -10.21637  -1.03672
 Alpha  occ. eigenvalues --   -1.02531  -0.74125  -0.61011  -0.54282  -0.49098
 Alpha  occ. eigenvalues --   -0.48508  -0.42321  -0.40489  -0.35316  -0.31562
 Alpha  occ. eigenvalues --   -0.26720  -0.26599
 Alpha virt. eigenvalues --    0.07569   0.10051   0.14988   0.16225   0.17934
 Alpha virt. eigenvalues --    0.21834   0.21977   0.25947   0.27272   0.52242
 Alpha virt. eigenvalues --    0.57226   0.58182   0.58886   0.65842   0.70545
 Alpha virt. eigenvalues --    0.77277   0.78175   0.84017   0.85878   0.87808
 Alpha virt. eigenvalues --    0.91041   0.93062   0.96802   0.96808   1.00417
 Alpha virt. eigenvalues --    1.02972   1.07108   1.29279   1.31198   1.32570
 Alpha virt. eigenvalues --    1.40175   1.50219   1.56701   1.57433   1.60244
 Alpha virt. eigenvalues --    1.66254   1.75139   1.89608   1.95702   1.96726
 Alpha virt. eigenvalues --    1.98667   1.98863   2.09655   2.10197   2.12989
 Alpha virt. eigenvalues --    2.22051   2.30234   2.31243   2.39402   2.41000
 Alpha virt. eigenvalues --    2.45837   2.62733   2.63648   2.65432   2.70527
 Alpha virt. eigenvalues --    2.75500   2.75663   2.77446   2.85773   2.89914
 Alpha virt. eigenvalues --    2.94517   3.04365   3.05239   3.29231   3.34965
 Alpha virt. eigenvalues --    3.43449   3.48040   3.53554   3.59285   3.83330
 Alpha virt. eigenvalues --    4.11511   4.33682   4.60769
     Molecular Orbital Coefficients:
                           1         2         3         4         5
                           O         O         O         O         O
     Eigenvalues --   -19.13995 -19.13995 -10.21663 -10.21637  -1.03672
   1 1   O  1S          0.87098   0.47642  -0.00011  -0.00009  -0.13960
   2        2S          0.02274   0.01270  -0.00025  -0.00011   0.30682
   3        2PX         0.00066   0.00040  -0.00012  -0.00007   0.07097
   4        2PY        -0.00068  -0.00035  -0.00007   0.00004  -0.03311
   5        2PZ         0.00000   0.00000   0.00000   0.00000   0.00000
   6        3S          0.01094   0.00457   0.00171   0.00178   0.28649
   7        3PX         0.00053  -0.00017   0.00009  -0.00009   0.03348
   8        3PY         0.00033  -0.00012   0.00048  -0.00001  -0.00658
   9        3PZ         0.00000   0.00000   0.00000   0.00000   0.00000
  10        4XX        -0.00715  -0.00379  -0.00057  -0.00059   0.00618
  11        4YY        -0.00695  -0.00361  -0.00019  -0.00024  -0.00041
  12        4ZZ        -0.00711  -0.00371  -0.00011   0.00009  -0.00638
  13        4XY         0.00001  -0.00004  -0.00011  -0.00019   0.00208
  14        4XZ         0.00000   0.00000   0.00000   0.00000   0.00000
  15        4YZ         0.00000   0.00000   0.00000   0.00000   0.00000
  16 2   H  1S          0.00021   0.00011   0.00015   0.00002   0.09597
  17        2S         -0.00107  -0.00068   0.00040  -0.00009   0.00822
  18        3PX        -0.00007  -0.00003   0.00012   0.00007   0.00175
  19        3PY        -0.00023  -0.00016   0.00011   0.00007   0.01579
  20        3PZ         0.00000   0.00000   0.00000   0.00000   0.00000
  21 3   C  1S          0.00002   0.00000   0.70143   0.70285  -0.06696
  22        2S          0.00032   0.00018   0.03498   0.03550   0.12605
  23        2PX        -0.00030  -0.00016  -0.00046  -0.00049  -0.06693
  24        2PY        -0.00008   0.00000  -0.00023  -0.00007  -0.01026
  25        2PZ         0.00000   0.00000   0.00000   0.00000   0.00000
  26        3S         -0.00263   0.00012  -0.00873  -0.01586   0.04662
  27        3PX         0.00121  -0.00012  -0.00002  -0.00022   0.00633
  28        3PY        -0.00036  -0.00007   0.00067  -0.00308   0.00134
  29        3PZ         0.00000   0.00000   0.00000   0.00000   0.00000
  30        4XX         0.00016   0.00011  -0.00634  -0.00603   0.00944
  31        4YY         0.00003  -0.00002  -0.00665  -0.00617  -0.00012
  32        4ZZ         0.00009   0.00004  -0.00642  -0.00618  -0.00991
  33        4XY         0.00003  -0.00003   0.00008   0.00007   0.00996
  34        4XZ         0.00000   0.00000   0.00000   0.00000   0.00000
  35        4YZ         0.00000   0.00000   0.00000   0.00000   0.00000
  36 4   C  1S         -0.00002   0.00002   0.70265  -0.70162  -0.06695
  37        2S         -0.00017   0.00033   0.03504  -0.03543   0.12603
  38        2PX        -0.00016   0.00030   0.00046  -0.00049   0.06691
  39        2PY        -0.00007   0.00005   0.00023  -0.00007   0.01026
  40        2PZ         0.00000   0.00000   0.00000   0.00000   0.00000
  41        3S          0.00228  -0.00132  -0.00876   0.01585   0.04662
  42        3PX         0.00109  -0.00055   0.00002  -0.00022  -0.00632
  43        3PY        -0.00027   0.00026  -0.00067  -0.00308  -0.00134
  44        3PZ         0.00000   0.00000   0.00000   0.00000   0.00000
  45        4XX        -0.00008   0.00018  -0.00635   0.00601   0.00944
  46        4YY        -0.00003   0.00000  -0.00666   0.00616  -0.00012
  47        4ZZ        -0.00005   0.00008  -0.00643   0.00617  -0.00991
  48        4XY        -0.00004  -0.00001   0.00008  -0.00007   0.00996
  49        4XZ         0.00000   0.00000   0.00000   0.00000   0.00000
  50        4YZ         0.00000   0.00000   0.00000   0.00000   0.00000
  51 5   H  1S          0.00000   0.00002  -0.00014   0.00008   0.02514
  52        2S         -0.00003  -0.00007   0.00214   0.00193   0.00306
  53        3PX         0.00002   0.00008   0.00002   0.00006  -0.00220
  54        3PY         0.00000   0.00003   0.00008  -0.00002   0.00162
  55        3PZ         0.00007   0.00004   0.00002   0.00010  -0.00311
  56 6   H  1S          0.00000   0.00002  -0.00014   0.00008   0.02514
  57        2S         -0.00003  -0.00007   0.00214   0.00193   0.00306
  58        3PX         0.00002   0.00008   0.00002   0.00006  -0.00220
  59        3PY         0.00000   0.00003   0.00008  -0.00002   0.00162
  60        3PZ        -0.00007  -0.00004  -0.00002  -0.00010   0.00311
  61 7   O  1S         -0.47633   0.87103  -0.00011   0.00009  -0.13957
  62        2S         -0.01229   0.02296  -0.00025   0.00011   0.30676
  63        2PX         0.00034  -0.00069   0.00012  -0.00007  -0.07096
  64        2PY        -0.00038   0.00066   0.00007   0.00004   0.03310
  65        2PZ         0.00000   0.00000   0.00000   0.00000   0.00000
  66        3S         -0.00675   0.00975   0.00171  -0.00178   0.28643
  67        3PX         0.00054  -0.00014  -0.00009  -0.00009  -0.03347
  68        3PY         0.00035  -0.00008  -0.00048  -0.00001   0.00658
  69        3PZ         0.00000   0.00000   0.00000   0.00000   0.00000
  70        4XX         0.00398  -0.00705  -0.00057   0.00059   0.00618
  71        4YY         0.00390  -0.00679  -0.00019   0.00024  -0.00041
  72        4ZZ         0.00399  -0.00696  -0.00011  -0.00009  -0.00638
  73        4XY        -0.00003  -0.00003  -0.00011   0.00019   0.00208
  74        4XZ         0.00000   0.00000   0.00000   0.00000   0.00000
  75        4YZ         0.00000   0.00000   0.00000   0.00000   0.00000
  76 8   H  1S          0.00001   0.00001  -0.00013  -0.00008   0.02514
  77        2S         -0.00001  -0.00008   0.00214  -0.00193   0.00306
  78        3PX        -0.00002  -0.00008  -0.00002   0.00006   0.00220
  79        3PY        -0.00002  -0.00002  -0.00008  -0.00002  -0.00162
  80        3PZ         0.00004  -0.00007  -0.00002   0.00010   0.00311
  81 9   H  1S          0.00001   0.00001  -0.00013  -0.00008   0.02514
  82        2S         -0.00001  -0.00008   0.00214  -0.00193   0.00306
  83        3PX        -0.00002  -0.00008  -0.00002   0.00006   0.00220
  84        3PY        -0.00002  -0.00002  -0.00008  -0.00002  -0.00162
  85        3PZ        -0.00004   0.00007   0.00002  -0.00010  -0.00311
  86 10  H  1S         -0.00012   0.00021   0.00015  -0.00002   0.09595
  87        2S          0.00054  -0.00115   0.00040   0.00009   0.00822
  88        3PX        -0.00004   0.00006  -0.00012   0.00007  -0.00175
  89        3PY        -0.00011   0.00026  -0.00011   0.00007  -0.01578
  90        3PZ         0.00000   0.00000   0.00000   0.00000   0.00000
                           6         7         8         9        10
                           O         O         O         O         O
     Eigenvalues --    -1.02531  -0.74125  -0.61011  -0.54282  -0.49098
   1 1   O  1S          0.14609   0.05551   0.03735  -0.01551   0.00000
   2        2S         -0.31747  -0.12393  -0.08569   0.03895   0.00000
   3        2PX        -0.06920   0.07225   0.15668   0.11044   0.00000
   4        2PY         0.04126   0.12777   0.11360   0.28759   0.00000
   5        2PZ         0.00000   0.00000   0.00000   0.00000   0.15895
   6        3S         -0.31485  -0.15508  -0.10895   0.04691   0.00000
   7        3PX        -0.03717   0.03024   0.08275   0.04065   0.00000
   8        3PY         0.00217   0.04835   0.05242   0.14148   0.00000
   9        3PZ         0.00000   0.00000   0.00000   0.00000   0.09606
  10        4XX        -0.00438   0.01109   0.01610   0.00564   0.00000
  11        4YY         0.00206  -0.00262  -0.00922  -0.00815   0.00000
  12        4ZZ         0.00817   0.00167  -0.00056   0.00153   0.00000
  13        4XY        -0.00217   0.00557   0.00124   0.00974   0.00000
  14        4XZ         0.00000   0.00000   0.00000   0.00000   0.01174
  15        4YZ         0.00000   0.00000   0.00000   0.00000  -0.00091
  16 2   H  1S         -0.10396  -0.10179  -0.09263  -0.15221   0.00000
  17        2S         -0.01029  -0.02930  -0.03945  -0.07905   0.00000
  18        3PX        -0.00148   0.00156   0.00456   0.00304   0.00000
  19        3PY        -0.01714  -0.01169  -0.00826  -0.00986   0.00000
  20        3PZ         0.00000   0.00000   0.00000   0.00000   0.00506
  21 3   C  1S          0.04641  -0.13049  -0.11846   0.01169   0.00000
  22        2S         -0.09004   0.25998   0.24659  -0.02483   0.00000
  23        2PX         0.08075   0.03246   0.03376  -0.22796   0.00000
  24        2PY         0.04599   0.09987  -0.11620   0.03687   0.00000
  25        2PZ         0.00000   0.00000   0.00000   0.00000   0.30693
  26        3S         -0.00154   0.20631   0.21153  -0.00422   0.00000
  27        3PX        -0.00865   0.00812   0.02590  -0.07757   0.00000
  28        3PY         0.01589   0.01883  -0.03544   0.02621   0.00000
  29        3PZ         0.00000   0.00000   0.00000   0.00000   0.11515
  30        4XX        -0.01119  -0.01201  -0.00201   0.01734   0.00000
  31        4YY         0.00739   0.00207  -0.01828  -0.00531   0.00000
  32        4ZZ         0.00789  -0.00745  -0.00135  -0.00941   0.00000
  33        4XY        -0.00837  -0.00600  -0.00037  -0.00290   0.00000
  34        4XZ         0.00000   0.00000   0.00000   0.00000   0.00421
  35        4YZ         0.00000   0.00000   0.00000   0.00000  -0.00102
  36 4   C  1S         -0.04643  -0.13049   0.11846  -0.01169   0.00000
  37        2S          0.09006   0.25998  -0.24659   0.02483   0.00000
  38        2PX         0.08076  -0.03246   0.03376  -0.22795   0.00000
  39        2PY         0.04600  -0.09987  -0.11620   0.03686   0.00000
  40        2PZ         0.00000   0.00000   0.00000   0.00000   0.30692
  41        3S          0.00155   0.20631  -0.21153   0.00422   0.00000
  42        3PX        -0.00865  -0.00812   0.02590  -0.07757   0.00000
  43        3PY         0.01589  -0.01883  -0.03544   0.02621   0.00000
  44        3PZ         0.00000   0.00000   0.00000   0.00000   0.11515
  45        4XX         0.01119  -0.01201   0.00201  -0.01734   0.00000
  46        4YY        -0.00739   0.00207   0.01828   0.00531   0.00000
  47        4ZZ        -0.00789  -0.00745   0.00135   0.00941   0.00000
  48        4XY         0.00837  -0.00600   0.00037   0.00290   0.00000
  49        4XZ         0.00000   0.00000   0.00000   0.00000  -0.00421
  50        4YZ         0.00000   0.00000   0.00000   0.00000   0.00102
  51 5   H  1S         -0.01681   0.08190   0.11947  -0.07147   0.13437
  52        2S          0.00029   0.01734   0.04885  -0.04389   0.09582
  53        3PX         0.00239  -0.00309  -0.00414  -0.00111  -0.00427
  54        3PY        -0.00047   0.00389   0.00172  -0.00162   0.00376
  55        3PZ         0.00201  -0.00634  -0.00798   0.00367  -0.00160
  56 6   H  1S         -0.01681   0.08190   0.11947  -0.07147  -0.13437
  57        2S          0.00029   0.01734   0.04885  -0.04389  -0.09582
  58        3PX         0.00239  -0.00309  -0.00414  -0.00111   0.00427
  59        3PY        -0.00047   0.00389   0.00172  -0.00162  -0.00376
  60        3PZ        -0.00201   0.00634   0.00798  -0.00367  -0.00160
  61 7   O  1S         -0.14612   0.05551  -0.03735   0.01551   0.00000
  62        2S          0.31752  -0.12393   0.08569  -0.03894   0.00000
  63        2PX        -0.06921  -0.07225   0.15669   0.11044   0.00000
  64        2PY         0.04127  -0.12777   0.11361   0.28758   0.00000
  65        2PZ         0.00000   0.00000   0.00000   0.00000   0.15895
  66        3S          0.31490  -0.15507   0.10894  -0.04691   0.00000
  67        3PX        -0.03718  -0.03024   0.08275   0.04065   0.00000
  68        3PY         0.00217  -0.04835   0.05243   0.14147   0.00000
  69        3PZ         0.00000   0.00000   0.00000   0.00000   0.09606
  70        4XX         0.00438   0.01109  -0.01610  -0.00564   0.00000
  71        4YY        -0.00206  -0.00262   0.00922   0.00815   0.00000
  72        4ZZ        -0.00817   0.00167   0.00056  -0.00153   0.00000
  73        4XY         0.00217   0.00557  -0.00124  -0.00974   0.00000
  74        4XZ         0.00000   0.00000   0.00000   0.00000  -0.01174
  75        4YZ         0.00000   0.00000   0.00000   0.00000   0.00091
  76 8   H  1S          0.01682   0.08190  -0.11947   0.07146  -0.13436
  77        2S         -0.00029   0.01734  -0.04885   0.04389  -0.09582
  78        3PX         0.00239   0.00309  -0.00414  -0.00111  -0.00427
  79        3PY        -0.00047  -0.00389   0.00173  -0.00162   0.00376
  80        3PZ         0.00201   0.00634  -0.00798   0.00367  -0.00160
  81 9   H  1S          0.01682   0.08190  -0.11947   0.07146   0.13436
  82        2S         -0.00029   0.01734  -0.04885   0.04389   0.09582
  83        3PX         0.00239   0.00309  -0.00414  -0.00111   0.00427
  84        3PY        -0.00047  -0.00389   0.00173  -0.00162  -0.00376
  85        3PZ        -0.00201  -0.00634   0.00798  -0.00367  -0.00160
  86 10  H  1S          0.10398  -0.10179   0.09263   0.15221   0.00000
  87        2S          0.01029  -0.02930   0.03946   0.07905   0.00000
  88        3PX        -0.00148  -0.00156   0.00456   0.00304   0.00000
  89        3PY        -0.01715   0.01169  -0.00826  -0.00986   0.00000
  90        3PZ         0.00000   0.00000   0.00000   0.00000   0.00506
                          11        12        13        14        15
                           O         O         O         O         O
     Eigenvalues --    -0.48508  -0.42321  -0.40489  -0.35316  -0.31562
   1 1   O  1S          0.04131   0.02293   0.00000   0.04839   0.03854
   2        2S         -0.08989  -0.03684   0.00000  -0.09888  -0.06332
   3        2PX        -0.05823   0.31719   0.00000   0.32991   0.20951
   4        2PY        -0.30112   0.02136   0.00000  -0.21005  -0.20166
   5        2PZ         0.00000   0.00000  -0.24647   0.00000   0.00000
   6        3S         -0.17934  -0.11906   0.00000  -0.20875  -0.23599
   7        3PX        -0.02704   0.18147   0.00000   0.23450   0.13818
   8        3PY        -0.15834  -0.00085   0.00000  -0.13134  -0.14523
   9        3PZ         0.00000   0.00000  -0.16389   0.00000   0.00000
  10        4XX        -0.00009   0.02098   0.00000   0.01500   0.01069
  11        4YY         0.01302  -0.00771   0.00000   0.00895   0.02004
  12        4ZZ         0.00103   0.00208   0.00000  -0.00243   0.00295
  13        4XY        -0.01144  -0.01177   0.00000  -0.01364  -0.00527
  14        4XZ         0.00000   0.00000  -0.01515   0.00000   0.00000
  15        4YZ         0.00000   0.00000   0.00480   0.00000   0.00000
  16 2   H  1S          0.14987  -0.04013   0.00000   0.09336   0.10659
  17        2S          0.08950  -0.04248   0.00000   0.05652   0.07134
  18        3PX        -0.00104   0.01091   0.00000   0.00982   0.00503
  19        3PY         0.00725  -0.00206   0.00000   0.00204   0.00124
  20        3PZ         0.00000   0.00000  -0.00813   0.00000   0.00000
  21 3   C  1S         -0.02844   0.00461   0.00000   0.01273  -0.02520
  22        2S          0.05291  -0.01246   0.00000  -0.01493   0.06158
  23        2PX         0.19445  -0.12246   0.00000  -0.17337  -0.14124
  24        2PY        -0.08414  -0.30911   0.00000  -0.03207   0.27341
  25        2PZ         0.00000   0.00000  -0.27998   0.00000   0.00000
  26        3S          0.08743   0.00837   0.00000  -0.13450   0.11513
  27        3PX         0.04347  -0.04711   0.00000  -0.03446  -0.08886
  28        3PY        -0.05175  -0.13529   0.00000  -0.06753   0.09372
  29        3PZ         0.00000   0.00000  -0.13069   0.00000   0.00000
  30        4XX        -0.02027   0.01477   0.00000   0.00124  -0.00737
  31        4YY         0.00625  -0.01030   0.00000   0.00787   0.01637
  32        4ZZ         0.01195  -0.00135   0.00000  -0.00751  -0.01390
  33        4XY        -0.00691   0.01200   0.00000   0.01133   0.01407
  34        4XZ         0.00000   0.00000  -0.00289   0.00000   0.00000
  35        4YZ         0.00000   0.00000   0.01931   0.00000   0.00000
  36 4   C  1S         -0.02844   0.00461   0.00000  -0.01274  -0.02520
  37        2S          0.05291  -0.01247   0.00000   0.01494   0.06159
  38        2PX        -0.19445   0.12246   0.00000  -0.17337   0.14125
  39        2PY         0.08414   0.30911   0.00000  -0.03210  -0.27341
  40        2PZ         0.00000   0.00000   0.27999   0.00000   0.00000
  41        3S          0.08743   0.00837   0.00000   0.13450   0.11513
  42        3PX        -0.04347   0.04711   0.00000  -0.03446   0.08887
  43        3PY         0.05175   0.13529   0.00000  -0.06754  -0.09371
  44        3PZ         0.00000   0.00000   0.13069   0.00000   0.00000
  45        4XX        -0.02027   0.01477   0.00000  -0.00124  -0.00737
  46        4YY         0.00625  -0.01030   0.00000  -0.00787   0.01637
  47        4ZZ         0.01195  -0.00135   0.00000   0.00751  -0.01390
  48        4XY        -0.00691   0.01200   0.00000  -0.01132   0.01407
  49        4XZ         0.00000   0.00000  -0.00289   0.00000   0.00000
  50        4YZ         0.00000   0.00000   0.01931   0.00000   0.00000
  51 5   H  1S          0.09346   0.01834  -0.14063  -0.06375  -0.09429
  52        2S          0.05517   0.00509  -0.11264  -0.05206  -0.12888
  53        3PX         0.00027  -0.00194   0.00455  -0.00153  -0.00040
  54        3PY        -0.00046  -0.00452  -0.00073  -0.00051   0.00398
  55        3PZ        -0.00425  -0.00096   0.00115   0.00319   0.00424
  56 6   H  1S          0.09346   0.01834   0.14063  -0.06375  -0.09429
  57        2S          0.05517   0.00509   0.11264  -0.05206  -0.12888
  58        3PX         0.00027  -0.00194  -0.00455  -0.00153  -0.00040
  59        3PY        -0.00046  -0.00452   0.00073  -0.00051   0.00398
  60        3PZ         0.00425   0.00096   0.00115  -0.00319  -0.00424
  61 7   O  1S          0.04131   0.02293   0.00000  -0.04839   0.03855
  62        2S         -0.08989  -0.03684   0.00000   0.09888  -0.06332
  63        2PX         0.05823  -0.31718   0.00000   0.32991  -0.20953
  64        2PY         0.30112  -0.02136   0.00000  -0.21004   0.20167
  65        2PZ         0.00000   0.00000   0.24647   0.00000   0.00000
  66        3S         -0.17935  -0.11906   0.00000   0.20874  -0.23600
  67        3PX         0.02704  -0.18146   0.00000   0.23450  -0.13819
  68        3PY         0.15835   0.00085   0.00000  -0.13133   0.14523
  69        3PZ         0.00000   0.00000   0.16389   0.00000   0.00000
  70        4XX        -0.00009   0.02097   0.00000  -0.01500   0.01069
  71        4YY         0.01302  -0.00771   0.00000  -0.00895   0.02004
  72        4ZZ         0.00103   0.00208   0.00000   0.00243   0.00295
  73        4XY        -0.01144  -0.01177   0.00000   0.01364  -0.00527
  74        4XZ         0.00000   0.00000  -0.01515   0.00000   0.00000
  75        4YZ         0.00000   0.00000   0.00480   0.00000   0.00000
  76 8   H  1S          0.09346   0.01834  -0.14064   0.06375  -0.09430
  77        2S          0.05517   0.00509  -0.11264   0.05205  -0.12889
  78        3PX        -0.00027   0.00194  -0.00455  -0.00153   0.00040
  79        3PY         0.00046   0.00452   0.00073  -0.00051  -0.00398
  80        3PZ         0.00425   0.00096  -0.00115   0.00319  -0.00424
  81 9   H  1S          0.09346   0.01834   0.14064   0.06375  -0.09430
  82        2S          0.05517   0.00509   0.11264   0.05205  -0.12889
  83        3PX        -0.00027   0.00194   0.00455  -0.00153   0.00040
  84        3PY         0.00046   0.00452  -0.00073  -0.00051  -0.00398
  85        3PZ        -0.00425  -0.00096  -0.00115  -0.00319   0.00424
  86 10  H  1S          0.14987  -0.04013   0.00000  -0.09336   0.10660
  87        2S          0.08950  -0.04248   0.00000  -0.05652   0.07134
  88        3PX         0.00104  -0.01091   0.00000   0.00983  -0.00503
  89        3PY        -0.00725   0.00206   0.00000   0.00204  -0.00124
  90        3PZ         0.00000   0.00000   0.00813   0.00000   0.00000
                          16        17        18        19        20
                           O         O         V         V         V
     Eigenvalues --    -0.26720  -0.26599   0.07569   0.10051   0.14988
   1 1   O  1S          0.00000   0.00000   0.07325  -0.04588   0.03475
   2        2S          0.00000   0.00000  -0.11421   0.06789  -0.04211
   3        2PX         0.00000   0.00000  -0.10702  -0.03024  -0.04974
   4        2PY         0.00000   0.00000   0.11812  -0.15471   0.17581
   5        2PZ         0.43452  -0.37886   0.00000   0.00000   0.00000
   6        3S          0.00000   0.00000  -0.82734   0.57508  -0.41986
   7        3PX         0.00000   0.00000  -0.17417  -0.01982  -0.04642
   8        3PY         0.00000   0.00000   0.24195  -0.26861   0.33085
   9        3PZ         0.34095  -0.29172   0.00000   0.00000   0.00000
  10        4XX         0.00000   0.00000   0.01770  -0.01072   0.02611
  11        4YY         0.00000   0.00000   0.02681  -0.01020   0.01513
  12        4ZZ         0.00000   0.00000   0.02828  -0.02355   0.01208
  13        4XY         0.00000   0.00000   0.00803  -0.00264   0.00959
  14        4XZ         0.01145  -0.00668   0.00000   0.00000   0.00000
  15        4YZ        -0.01068   0.00763   0.00000   0.00000   0.00000
  16 2   H  1S          0.00000   0.00000   0.08843  -0.06947   0.05502
  17        2S          0.00000   0.00000   0.80311  -0.81332   0.75887
  18        3PX         0.00000   0.00000  -0.00043  -0.00290  -0.00063
  19        3PY         0.00000   0.00000  -0.00642   0.00283  -0.00642
  20        3PZ         0.01444  -0.01246   0.00000   0.00000   0.00000
  21 3   C  1S          0.00000   0.00000   0.00791  -0.05459  -0.06132
  22        2S          0.00000   0.00000   0.01335   0.07200   0.09632
  23        2PX         0.00000   0.00000  -0.15673   0.14136   0.05042
  24        2PY         0.00000   0.00000  -0.02598  -0.06327  -0.09342
  25        2PZ        -0.12875   0.17147   0.00000   0.00000   0.00000
  26        3S          0.00000   0.00000  -0.38876   0.88311   1.07457
  27        3PX         0.00000   0.00000  -0.35642   0.42953   0.54977
  28        3PY         0.00000   0.00000  -0.22560  -0.21554  -0.35351
  29        3PZ        -0.05399  -0.02183   0.00000   0.00000   0.00000
  30        4XX         0.00000   0.00000  -0.00764  -0.00768  -0.00562
  31        4YY         0.00000   0.00000   0.00773  -0.00193   0.00622
  32        4ZZ         0.00000   0.00000   0.01072  -0.00975  -0.01453
  33        4XY         0.00000   0.00000  -0.02272  -0.00279  -0.00767
  34        4XZ        -0.02251   0.02733   0.00000   0.00000   0.00000
  35        4YZ        -0.00511  -0.00776   0.00000   0.00000   0.00000
  36 4   C  1S          0.00000   0.00000  -0.00791  -0.05459  -0.06132
  37        2S          0.00000   0.00000  -0.01335   0.07200   0.09632
  38        2PX         0.00000   0.00000  -0.15673  -0.14136  -0.05042
  39        2PY         0.00000   0.00000  -0.02598   0.06327   0.09341
  40        2PZ        -0.12859  -0.17159   0.00000   0.00000   0.00000
  41        3S          0.00000   0.00000   0.38878   0.88310   1.07458
  42        3PX         0.00000   0.00000  -0.35643  -0.42952  -0.54976
  43        3PY         0.00000   0.00000  -0.22559   0.21555   0.35350
  44        3PZ        -0.05401   0.02178   0.00000   0.00000   0.00000
  45        4XX         0.00000   0.00000   0.00764  -0.00768  -0.00562
  46        4YY         0.00000   0.00000  -0.00773  -0.00193   0.00622
  47        4ZZ         0.00000   0.00000  -0.01072  -0.00975  -0.01453
  48        4XY         0.00000   0.00000   0.02272  -0.00279  -0.00767
  49        4XZ         0.02249   0.02735   0.00000   0.00000   0.00000
  50        4YZ         0.00512  -0.00775   0.00000   0.00000   0.00000
  51 5   H  1S         -0.09376   0.13725   0.02458   0.00317  -0.03740
  52        2S         -0.08245   0.21011   0.25899  -0.62777  -0.82272
  53        3PX         0.00049  -0.00148  -0.00425   0.00165  -0.00049
  54        3PY        -0.00170   0.00339  -0.00594  -0.00113  -0.00649
  55        3PZ         0.00046  -0.00115   0.00229  -0.00361  -0.00404
  56 6   H  1S          0.09376  -0.13725   0.02458   0.00317  -0.03740
  57        2S          0.08245  -0.21011   0.25899  -0.62777  -0.82272
  58        3PX        -0.00049   0.00148  -0.00425   0.00165  -0.00049
  59        3PY         0.00170  -0.00339  -0.00594  -0.00113  -0.00649
  60        3PZ         0.00046  -0.00115  -0.00229   0.00361   0.00404
  61 7   O  1S          0.00000   0.00000  -0.07325  -0.04588   0.03475
  62        2S          0.00000   0.00000   0.11421   0.06789  -0.04211
  63        2PX         0.00000   0.00000  -0.10702   0.03024   0.04974
  64        2PY         0.00000   0.00000   0.11812   0.15470  -0.17581
  65        2PZ         0.43416   0.37927   0.00000   0.00000   0.00000
  66        3S          0.00000   0.00000   0.82735   0.57507  -0.41988
  67        3PX         0.00000   0.00000  -0.17417   0.01982   0.04642
  68        3PY         0.00000   0.00000   0.24195   0.26860  -0.33085
  69        3PZ         0.34067   0.29204   0.00000   0.00000   0.00000
  70        4XX         0.00000   0.00000  -0.01770  -0.01072   0.02611
  71        4YY         0.00000   0.00000  -0.02681  -0.01020   0.01513
  72        4ZZ         0.00000   0.00000  -0.02828  -0.02355   0.01208
  73        4XY         0.00000   0.00000  -0.00803  -0.00264   0.00959
  74        4XZ        -0.01145  -0.00669   0.00000   0.00000   0.00000
  75        4YZ         0.01067   0.00764   0.00000   0.00000   0.00000
  76 8   H  1S          0.09363   0.13734  -0.02458   0.00317  -0.03739
  77        2S          0.08225   0.21019  -0.25900  -0.62777  -0.82272
  78        3PX         0.00049   0.00148  -0.00425  -0.00165   0.00049
  79        3PY        -0.00169  -0.00339  -0.00593   0.00113   0.00649
  80        3PZ         0.00046   0.00115   0.00229   0.00361   0.00404
  81 9   H  1S         -0.09363  -0.13734  -0.02458   0.00317  -0.03739
  82        2S         -0.08225  -0.21019  -0.25900  -0.62777  -0.82272
  83        3PX        -0.00049  -0.00148  -0.00425  -0.00165   0.00049
  84        3PY         0.00169   0.00339  -0.00593   0.00113   0.00649
  85        3PZ         0.00046   0.00115  -0.00229  -0.00361  -0.00404
  86 10  H  1S          0.00000   0.00000  -0.08843  -0.06947   0.05502
  87        2S          0.00000   0.00000  -0.80311  -0.81331   0.75889
  88        3PX         0.00000   0.00000  -0.00043   0.00290   0.00063
  89        3PY         0.00000   0.00000  -0.00642  -0.00283   0.00642
  90        3PZ         0.01443   0.01247   0.00000   0.00000   0.00000
                          21        22        23        24        25
                           V         V         V         V         V
     Eigenvalues --     0.16225   0.17934   0.21834   0.21977   0.25947
   1 1   O  1S          0.00000   0.03186  -0.01846   0.00000   0.05138
   2        2S          0.00000  -0.04498   0.06048   0.00000   0.00343
   3        2PX         0.00000  -0.04381   0.20019   0.00000  -0.24062
   4        2PY         0.00000   0.03384   0.20988   0.00000  -0.03946
   5        2PZ        -0.02022   0.00000   0.00000  -0.10619   0.00000
   6        3S          0.00000  -0.44673   0.15608   0.00000  -1.10519
   7        3PX         0.00000  -0.18540   0.39902   0.00000  -0.65379
   8        3PY         0.00000   0.07984   0.31825   0.00000  -0.31048
   9        3PZ        -0.13151   0.00000   0.00000  -0.21231   0.00000
  10        4XX         0.00000   0.01002   0.01107   0.00000   0.03714
  11        4YY         0.00000   0.00786   0.00114   0.00000   0.02033
  12        4ZZ         0.00000   0.00929   0.00657   0.00000   0.05124
  13        4XY         0.00000  -0.00146   0.00966   0.00000  -0.00226
  14        4XZ         0.00346   0.00000   0.00000   0.00376   0.00000
  15        4YZ         0.00735   0.00000   0.00000   0.01511   0.00000
  16 2   H  1S          0.00000   0.03965   0.05712   0.00000  -0.08260
  17        2S          0.00000   0.30813   0.78902   0.00000  -0.27138
  18        3PX         0.00000  -0.00112  -0.00171   0.00000  -0.00395
  19        3PY         0.00000  -0.00221  -0.00414   0.00000  -0.00301
  20        3PZ        -0.00324   0.00000   0.00000  -0.00751   0.00000
  21 3   C  1S          0.00000  -0.10414  -0.00078   0.00000  -0.06140
  22        2S          0.00000   0.10189   0.01058   0.00000   0.10526
  23        2PX         0.00000   0.12105   0.14788   0.00000  -0.22211
  24        2PY         0.00000  -0.10881   0.26131   0.00000  -0.13154
  25        2PZ         0.31158   0.00000   0.00000   0.34363   0.00000
  26        3S          0.00000   1.95560   0.19156   0.00000   0.92650
  27        3PX         0.00000   0.24065   0.50648   0.00000  -1.50377
  28        3PY         0.00000  -0.14880   0.99709   0.00000  -0.34286
  29        3PZ         0.81618   0.00000   0.00000   1.27199   0.00000
  30        4XX         0.00000  -0.00947   0.02259   0.00000  -0.02201
  31        4YY         0.00000  -0.00556  -0.02136   0.00000   0.00498
  32        4ZZ         0.00000  -0.00876  -0.00526   0.00000   0.02338
  33        4XY         0.00000   0.00492   0.01605   0.00000   0.00779
  34        4XZ        -0.00623   0.00000   0.00000  -0.00596   0.00000
  35        4YZ         0.02167   0.00000   0.00000  -0.00925   0.00000
  36 4   C  1S          0.00000   0.10414   0.00078   0.00000  -0.06140
  37        2S          0.00000  -0.10189  -0.01058   0.00000   0.10526
  38        2PX         0.00000   0.12105   0.14788   0.00000   0.22212
  39        2PY         0.00000  -0.10881   0.26131   0.00000   0.13153
  40        2PZ         0.31159   0.00000   0.00000  -0.34363   0.00000
  41        3S          0.00000  -1.95559  -0.19156   0.00000   0.92655
  42        3PX         0.00000   0.24064   0.50644   0.00000   1.50378
  43        3PY         0.00000  -0.14881   0.99709   0.00000   0.34283
  44        3PZ         0.81620   0.00000   0.00000  -1.27196   0.00000
  45        4XX         0.00000   0.00947  -0.02258   0.00000  -0.02201
  46        4YY         0.00000   0.00556   0.02136   0.00000   0.00498
  47        4ZZ         0.00000   0.00876   0.00526   0.00000   0.02338
  48        4XY         0.00000  -0.00492  -0.01605   0.00000   0.00779
  49        4XZ         0.00623   0.00000   0.00000  -0.00596   0.00000
  50        4YZ        -0.02167   0.00000   0.00000  -0.00925   0.00000
  51 5   H  1S         -0.06097  -0.03056  -0.01449  -0.01199   0.03031
  52        2S         -1.09944  -1.08237   0.07643  -1.23311   0.00000
  53        3PX        -0.00087  -0.00229   0.00673  -0.00478  -0.01217
  54        3PY         0.00641  -0.00002   0.00978  -0.00106   0.00131
  55        3PZ        -0.00006  -0.00429  -0.00126  -0.00045   0.00526
  56 6   H  1S          0.06097  -0.03056  -0.01449   0.01199   0.03031
  57        2S          1.09944  -1.08237   0.07643   1.23311   0.00000
  58        3PX         0.00087  -0.00229   0.00673   0.00478  -0.01217
  59        3PY        -0.00641  -0.00002   0.00978   0.00106   0.00131
  60        3PZ        -0.00006   0.00429   0.00126  -0.00045  -0.00526
  61 7   O  1S          0.00000  -0.03186   0.01846   0.00000   0.05138
  62        2S          0.00000   0.04498  -0.06048   0.00000   0.00343
  63        2PX         0.00000  -0.04381   0.20018   0.00000   0.24063
  64        2PY         0.00000   0.03383   0.20988   0.00000   0.03947
  65        2PZ        -0.02022   0.00000   0.00000   0.10619   0.00000
  66        3S          0.00000   0.44673  -0.15607   0.00000  -1.10519
  67        3PX         0.00000  -0.18540   0.39901   0.00000   0.65380
  68        3PY         0.00000   0.07984   0.31824   0.00000   0.31050
  69        3PZ        -0.13151   0.00000   0.00000   0.21231   0.00000
  70        4XX         0.00000  -0.01002  -0.01107   0.00000   0.03714
  71        4YY         0.00000  -0.00786  -0.00114   0.00000   0.02033
  72        4ZZ         0.00000  -0.00929  -0.00657   0.00000   0.05124
  73        4XY         0.00000   0.00146  -0.00966   0.00000  -0.00226
  74        4XZ        -0.00346   0.00000   0.00000   0.00376   0.00000
  75        4YZ        -0.00735   0.00000   0.00000   0.01511   0.00000
  76 8   H  1S          0.06098   0.03056   0.01449  -0.01199   0.03031
  77        2S          1.09945   1.08236  -0.07645  -1.23308   0.00000
  78        3PX        -0.00087  -0.00229   0.00673   0.00478   0.01217
  79        3PY         0.00641  -0.00002   0.00978   0.00106  -0.00131
  80        3PZ        -0.00006  -0.00429  -0.00126   0.00045  -0.00526
  81 9   H  1S         -0.06098   0.03056   0.01449   0.01199   0.03031
  82        2S         -1.09945   1.08236  -0.07645   1.23308   0.00000
  83        3PX         0.00087  -0.00229   0.00673  -0.00478   0.01217
  84        3PY        -0.00641  -0.00002   0.00978  -0.00106  -0.00131
  85        3PZ        -0.00006   0.00429   0.00126   0.00045   0.00526
  86 10  H  1S          0.00000  -0.03966  -0.05711   0.00000  -0.08260
  87        2S          0.00000  -0.30813  -0.78901   0.00000  -0.27140
  88        3PX         0.00000  -0.00112  -0.00171   0.00000   0.00396
  89        3PY         0.00000  -0.00221  -0.00414   0.00000   0.00301
  90        3PZ        -0.00324   0.00000   0.00000   0.00751   0.00000
                          26        27        28        29        30
                           V         V         V         V         V
     Eigenvalues --     0.27272   0.52242   0.57226   0.58182   0.58886
   1 1   O  1S          0.03640  -0.00341  -0.00146   0.00000   0.01819
   2        2S         -0.08103  -0.01866  -0.01755   0.00000  -0.24838
   3        2PX        -0.10340  -0.12697  -0.18829   0.00000  -0.10171
   4        2PY        -0.16236  -0.07763   0.04485   0.00000  -0.12305
   5        2PZ         0.00000   0.00000   0.00000  -0.16464   0.00000
   6        3S         -0.37245   0.26614   0.40139   0.00000   0.84181
   7        3PX        -0.23122  -0.00490   0.15078   0.00000   0.15334
   8        3PY        -0.40339   0.19383   0.06592   0.00000   0.00882
   9        3PZ         0.00000   0.00000   0.00000  -0.07488   0.00000
  10        4XX        -0.00471   0.01994   0.10368   0.00000   0.01037
  11        4YY         0.01780  -0.00901  -0.04025   0.00000  -0.02955
  12        4ZZ         0.00202  -0.02234  -0.03578   0.00000  -0.10351
  13        4XY         0.01875   0.02312   0.05437   0.00000   0.06051
  14        4XZ         0.00000   0.00000   0.00000  -0.00899   0.00000
  15        4YZ         0.00000   0.00000   0.00000   0.02724   0.00000
  16 2   H  1S          0.03106  -0.04312  -0.11293   0.00000   0.10173
  17        2S         -0.15729  -0.10989   0.33926   0.00000   0.08118
  18        3PX        -0.01834   0.01413  -0.03222   0.00000  -0.04195
  19        3PY        -0.00600   0.01918   0.00356   0.00000  -0.01271
  20        3PZ         0.00000   0.00000   0.00000  -0.00560   0.00000
  21 3   C  1S         -0.10598   0.00332  -0.01020   0.00000  -0.02027
  22        2S          0.11933   0.09874   0.21185   0.00000   0.20209
  23        2PX        -0.21275  -0.37795  -0.56881   0.00000  -0.59139
  24        2PY         0.24279   0.45773  -0.35726   0.00000  -0.38788
  25        2PZ         0.00000   0.00000   0.00000  -0.38935   0.00000
  26        3S          2.07771   0.29070  -0.15685   0.00000  -0.60080
  27        3PX        -0.50105   0.80495   0.83639   0.00000   1.23032
  28        3PY         1.58830  -0.84073   0.47696   0.00000   0.65305
  29        3PZ         0.00000   0.00000   0.00000   0.86193   0.00000
  30        4XX        -0.00948  -0.02430  -0.03427   0.00000  -0.02059
  31        4YY        -0.02476   0.09867   0.04399   0.00000  -0.02838
  32        4ZZ         0.02698  -0.03040  -0.01317   0.00000   0.03048
  33        4XY        -0.01454  -0.01153  -0.04133   0.00000  -0.01147
  34        4XZ         0.00000   0.00000   0.00000  -0.04813   0.00000
  35        4YZ         0.00000   0.00000   0.00000   0.09111   0.00000
  36 4   C  1S          0.10598   0.00332   0.01020   0.00000  -0.02027
  37        2S         -0.11933   0.09874  -0.21186   0.00000   0.20209
  38        2PX        -0.21274   0.37792  -0.56885   0.00000   0.59138
  39        2PY         0.24280  -0.45773  -0.35725   0.00000   0.38786
  40        2PZ         0.00000   0.00000   0.00000  -0.38936   0.00000
  41        3S         -2.07766   0.29070   0.15686   0.00000  -0.60087
  42        3PX        -0.50099  -0.80492   0.83646   0.00000  -1.23031
  43        3PY         1.58832   0.84074   0.47695   0.00000  -0.65298
  44        3PZ         0.00000   0.00000   0.00000   0.86192   0.00000
  45        4XX         0.00948  -0.02429   0.03427   0.00000  -0.02059
  46        4YY         0.02476   0.09867  -0.04399   0.00000  -0.02838
  47        4ZZ        -0.02698  -0.03040   0.01317   0.00000   0.03048
  48        4XY         0.01454  -0.01152   0.04133   0.00000  -0.01147
  49        4XZ         0.00000   0.00000   0.00000   0.04813   0.00000
  50        4YZ         0.00000   0.00000   0.00000  -0.09111   0.00000
  51 5   H  1S          0.07657  -0.15545  -0.09076  -0.36478   0.01096
  52        2S          0.19685  -0.09717  -0.05533  -0.15188  -0.04113
  53        3PX        -0.00904   0.00731  -0.00056  -0.00298  -0.00549
  54        3PY         0.00493  -0.03194  -0.00929   0.02758  -0.00667
  55        3PZ         0.00774   0.00719  -0.00307   0.01955   0.00649
  56 6   H  1S          0.07657  -0.15545  -0.09076   0.36478   0.01096
  57        2S          0.19685  -0.09717  -0.05533   0.15188  -0.04113
  58        3PX        -0.00904   0.00731  -0.00056   0.00298  -0.00549
  59        3PY         0.00493  -0.03194  -0.00929  -0.02758  -0.00667
  60        3PZ        -0.00774  -0.00719   0.00307   0.01955  -0.00649
  61 7   O  1S         -0.03640  -0.00341   0.00146   0.00000   0.01819
  62        2S          0.08103  -0.01866   0.01755   0.00000  -0.24838
  63        2PX        -0.10339   0.12696  -0.18830   0.00000   0.10171
  64        2PY        -0.16236   0.07763   0.04484   0.00000   0.12305
  65        2PZ         0.00000   0.00000   0.00000  -0.16464   0.00000
  66        3S          0.37238   0.26612  -0.40142   0.00000   0.84181
  67        3PX        -0.23120   0.00490   0.15079   0.00000  -0.15335
  68        3PY        -0.40339  -0.19382   0.06593   0.00000  -0.00884
  69        3PZ         0.00000   0.00000   0.00000  -0.07488   0.00000
  70        4XX         0.00472   0.01994  -0.10368   0.00000   0.01036
  71        4YY        -0.01780  -0.00901   0.04025   0.00000  -0.02954
  72        4ZZ        -0.00202  -0.02234   0.03578   0.00000  -0.10351
  73        4XY        -0.01875   0.02312  -0.05437   0.00000   0.06051
  74        4XZ         0.00000   0.00000   0.00000   0.00899   0.00000
  75        4YZ         0.00000   0.00000   0.00000  -0.02724   0.00000
  76 8   H  1S         -0.07657  -0.15544   0.09076   0.36478   0.01096
  77        2S         -0.19686  -0.09718   0.05533   0.15186  -0.04114
  78        3PX        -0.00903  -0.00731  -0.00055  -0.00298   0.00549
  79        3PY         0.00493   0.03194  -0.00929   0.02758   0.00667
  80        3PZ         0.00774  -0.00719  -0.00307   0.01955  -0.00649
  81 9   H  1S         -0.07657  -0.15544   0.09076  -0.36478   0.01096
  82        2S         -0.19686  -0.09718   0.05533  -0.15186  -0.04114
  83        3PX        -0.00903  -0.00731  -0.00055   0.00298   0.00549
  84        3PY         0.00493   0.03194  -0.00929  -0.02758   0.00667
  85        3PZ        -0.00774   0.00719   0.00307   0.01955   0.00649
  86 10  H  1S         -0.03107  -0.04312   0.11292   0.00000   0.10175
  87        2S          0.15730  -0.10989  -0.33925   0.00000   0.08115
  88        3PX        -0.01834  -0.01413  -0.03222   0.00000   0.04194
  89        3PY        -0.00600  -0.01918   0.00356   0.00000   0.01272
  90        3PZ         0.00000   0.00000   0.00000  -0.00560   0.00000
                          31        32        33        34        35
                           V         V         V         V         V
     Eigenvalues --     0.65842   0.70545   0.77277   0.78175   0.84017
   1 1   O  1S         -0.00346   0.00000  -0.01484   0.00869   0.00000
   2        2S          0.00319   0.00000  -0.23113   0.00249   0.00000
   3        2PX         0.18355   0.00000   0.20780  -0.19478   0.00000
   4        2PY         0.03872   0.00000  -0.34730   0.24307   0.00000
   5        2PZ         0.00000  -0.32856   0.00000   0.00000   0.14627
   6        3S         -0.23144   0.00000   0.37062   0.21744   0.00000
   7        3PX        -0.13974   0.00000  -0.23265   0.39469   0.00000
   8        3PY        -0.32389   0.00000   0.27023   0.01378   0.00000
   9        3PZ         0.00000  -0.03320   0.00000   0.00000  -0.26947
  10        4XX        -0.01239   0.00000  -0.05751  -0.02214   0.00000
  11        4YY        -0.06585   0.00000  -0.24873   0.21125   0.00000
  12        4ZZ         0.02584   0.00000  -0.04561  -0.05998   0.00000
  13        4XY        -0.05067   0.00000  -0.03286   0.01604   0.00000
  14        4XZ         0.00000  -0.00623   0.00000   0.00000  -0.05246
  15        4YZ         0.00000  -0.00845   0.00000   0.00000  -0.00651
  16 2   H  1S         -0.17531   0.00000  -0.36885   0.58839   0.00000
  17        2S          0.27288   0.00000   0.38853  -0.45610   0.00000
  18        3PX        -0.01712   0.00000   0.01204  -0.01085   0.00000
  19        3PY         0.01449   0.00000   0.12620  -0.12397   0.00000
  20        3PZ         0.00000  -0.00219   0.00000   0.00000   0.00006
  21 3   C  1S          0.03410   0.00000  -0.01969   0.03176   0.00000
  22        2S         -0.38630   0.00000   0.05478  -0.03719   0.00000
  23        2PX         0.22293   0.00000   0.13462   0.00851   0.00000
  24        2PY        -0.66356   0.00000  -0.16355  -0.22975   0.00000
  25        2PZ         0.00000  -0.61475   0.00000   0.00000  -0.64161
  26        3S          1.67333   0.00000  -0.12496  -0.44486   0.00000
  27        3PX        -0.62881   0.00000   0.00207   0.10367   0.00000
  28        3PY         2.15965   0.00000   0.10035   0.15203   0.00000
  29        3PZ         0.00000   2.08518   0.00000   0.00000   1.29636
  30        4XX        -0.01325   0.00000   0.01897  -0.02627   0.00000
  31        4YY         0.07894   0.00000   0.03615   0.00847   0.00000
  32        4ZZ        -0.02586   0.00000  -0.07719   0.02018   0.00000
  33        4XY         0.07195   0.00000   0.05982  -0.11126   0.00000
  34        4XZ         0.00000  -0.01177   0.00000   0.00000   0.12632
  35        4YZ         0.00000  -0.01962   0.00000   0.00000  -0.10399
  36 4   C  1S         -0.03410   0.00000  -0.01970  -0.03176   0.00000
  37        2S          0.38630   0.00000   0.05479   0.03718   0.00000
  38        2PX         0.22292   0.00000  -0.13461   0.00853   0.00000
  39        2PY        -0.66358   0.00000   0.16355  -0.22975   0.00000
  40        2PZ         0.00000   0.61476   0.00000   0.00000  -0.64163
  41        3S         -1.67331   0.00000  -0.12492   0.44488   0.00000
  42        3PX        -0.62881   0.00000  -0.00206   0.10365   0.00000
  43        3PY         2.15968   0.00000  -0.10037   0.15204   0.00000
  44        3PZ         0.00000  -2.08518   0.00000   0.00000   1.29639
  45        4XX         0.01325   0.00000   0.01897   0.02626   0.00000
  46        4YY        -0.07893   0.00000   0.03615  -0.00847   0.00000
  47        4ZZ         0.02586   0.00000  -0.07719  -0.02017   0.00000
  48        4XY        -0.07195   0.00000   0.05983   0.11125   0.00000
  49        4XZ         0.00000  -0.01177   0.00000   0.00000  -0.12633
  50        4YZ         0.00000  -0.01961   0.00000   0.00000   0.10399
  51 5   H  1S          0.09946  -0.09705  -0.28989   0.18579   0.37378
  52        2S          0.46224  -0.81707   0.17293  -0.02344  -1.21731
  53        3PX        -0.01839  -0.00408  -0.00235   0.00808   0.05138
  54        3PY        -0.01553  -0.04996   0.01326  -0.00938  -0.00526
  55        3PZ        -0.00267   0.03953  -0.04004   0.00591   0.05514
  56 6   H  1S          0.09946   0.09705  -0.28989   0.18579  -0.37378
  57        2S          0.46224   0.81707   0.17293  -0.02344   1.21731
  58        3PX        -0.01839   0.00408  -0.00235   0.00808  -0.05138
  59        3PY        -0.01553   0.04996   0.01326  -0.00938   0.00526
  60        3PZ         0.00267   0.03953   0.04004  -0.00591   0.05514
  61 7   O  1S          0.00346   0.00000  -0.01484  -0.00869   0.00000
  62        2S         -0.00318   0.00000  -0.23113  -0.00249   0.00000
  63        2PX         0.18354   0.00000  -0.20781  -0.19475   0.00000
  64        2PY         0.03872   0.00000   0.34731   0.24304   0.00000
  65        2PZ         0.00000   0.32856   0.00000   0.00000   0.14629
  66        3S          0.23142   0.00000   0.37061  -0.21743   0.00000
  67        3PX        -0.13973   0.00000   0.23267   0.39466   0.00000
  68        3PY        -0.32390   0.00000  -0.27022   0.01379   0.00000
  69        3PZ         0.00000   0.03320   0.00000   0.00000  -0.26949
  70        4XX         0.01239   0.00000  -0.05751   0.02215   0.00000
  71        4YY         0.06585   0.00000  -0.24875  -0.21123   0.00000
  72        4ZZ        -0.02584   0.00000  -0.04561   0.05997   0.00000
  73        4XY         0.05067   0.00000  -0.03286  -0.01604   0.00000
  74        4XZ         0.00000  -0.00623   0.00000   0.00000   0.05246
[...]
  73        4XY         0.00000   0.00000   0.00000   0.00000   0.00000
  74        4XZ         0.00000   0.00000   0.00000   0.00000   0.00000
  75        4YZ         0.00000   0.00000   0.00000   0.00000   0.00000
  76 8   H  1S          0.00000  -0.00002  -0.00002  -0.00012  -0.00011
  77        2S         -0.00004   0.00019  -0.00070  -0.00317  -0.00336
  78        3PX         0.00000   0.00000   0.00000   0.00000   0.00000
  79        3PY         0.00000   0.00000   0.00000   0.00001   0.00000
  80        3PZ         0.00000   0.00000   0.00000   0.00000   0.00000
  81 9   H  1S          0.00000  -0.00002  -0.00002  -0.00012  -0.00011
  82        2S         -0.00004   0.00019  -0.00070  -0.00317  -0.00336
  83        3PX         0.00000   0.00000   0.00000   0.00000   0.00000
  84        3PY         0.00000   0.00000   0.00000   0.00001   0.00000
  85        3PZ         0.00000   0.00000   0.00000   0.00000   0.00000
  86 10  H  1S         -0.00132   0.02240   0.08349   0.00748   0.00000
  87        2S          0.00045  -0.00635   0.02407   0.00256   0.00000
  88        3PX        -0.00054   0.00682   0.00464   0.00186   0.00000
  89        3PY        -0.00003   0.00045   0.00182   0.00120   0.00000
  90        3PZ         0.00000   0.00000   0.00000   0.00000   0.00375
                          66        67        68        69        70
  66        3S          0.74465
  67        3PX         0.00000   0.22417
  68        3PY         0.00000   0.00000   0.19384
  69        3PZ         0.00000   0.00000   0.00000   0.46957
  70        4XX        -0.01725   0.00000   0.00000   0.00000   0.00275
  71        4YY        -0.00465   0.00000   0.00000   0.00000   0.00002
  72        4ZZ        -0.00793   0.00000   0.00000   0.00000   0.00008
  73        4XY         0.00000   0.00000   0.00000   0.00000   0.00000
  74        4XZ         0.00000   0.00000   0.00000   0.00000   0.00000
  75        4YZ         0.00000   0.00000   0.00000   0.00000   0.00000
  76 8   H  1S          0.00001  -0.00061  -0.00267  -0.00322  -0.00001
  77        2S          0.00778  -0.00292  -0.01079  -0.01507  -0.00038
  78        3PX        -0.00001  -0.00001   0.00001  -0.00002   0.00000
  79        3PY         0.00000   0.00001   0.00024   0.00007   0.00000
  80        3PZ         0.00001  -0.00001  -0.00002   0.00000   0.00000
  81 9   H  1S          0.00001  -0.00061  -0.00267  -0.00322  -0.00001
  82        2S          0.00778  -0.00292  -0.01079  -0.01507  -0.00038
  83        3PX        -0.00001  -0.00001   0.00001  -0.00002   0.00000
  84        3PY         0.00000   0.00001   0.00024   0.00007   0.00000
  85        3PZ         0.00001  -0.00001  -0.00002   0.00000   0.00000
  86 10  H  1S          0.00681   0.09451   0.00464   0.00000   0.00952
  87        2S         -0.04429   0.04523   0.00296   0.00000   0.00527
  88        3PX         0.00534   0.00051   0.00068   0.00000   0.00020
  89        3PY        -0.00009   0.00086   0.00202   0.00000   0.00014
  90        3PZ         0.00000   0.00000   0.00000   0.00553   0.00000
                          71        72        73        74        75
  71        4YY         0.00178
  72        4ZZ         0.00002   0.00040
  73        4XY         0.00000   0.00000   0.00118
  74        4XZ         0.00000   0.00000   0.00000   0.00078
  75        4YZ         0.00000   0.00000   0.00000   0.00000   0.00061
  76 8   H  1S          0.00002   0.00000   0.00001   0.00000   0.00004
  77        2S         -0.00031  -0.00005   0.00000  -0.00004   0.00007
  78        3PX         0.00000   0.00000   0.00000   0.00000   0.00000
  79        3PY         0.00000   0.00000   0.00000   0.00000   0.00000
  80        3PZ         0.00000   0.00000   0.00000   0.00000   0.00000
  81 9   H  1S          0.00002   0.00000   0.00001   0.00000   0.00004
  82        2S         -0.00031  -0.00005   0.00000  -0.00004   0.00007
  83        3PX         0.00000   0.00000   0.00000   0.00000   0.00000
  84        3PY         0.00000   0.00000   0.00000   0.00000   0.00000
  85        3PZ         0.00000   0.00000   0.00000   0.00000   0.00000
  86 10  H  1S         -0.00089  -0.00050  -0.00034   0.00000   0.00000
  87        2S         -0.00118  -0.00010  -0.00002   0.00000   0.00000
  88        3PX        -0.00012  -0.00008   0.00005   0.00000   0.00000
  89        3PY        -0.00004  -0.00001   0.00018   0.00000   0.00000
  90        3PZ         0.00000   0.00000   0.00000   0.00030  -0.00007
                          76        77        78        79        80
  76 8   H  1S          0.22308
  77        2S          0.12513   0.19577
  78        3PX         0.00000   0.00000   0.00021
  79        3PY         0.00000   0.00000   0.00000   0.00014
  80        3PZ         0.00000   0.00000   0.00000   0.00000   0.00035
  81 9   H  1S         -0.00063  -0.01027   0.00000   0.00000   0.00009
  82        2S         -0.01027  -0.03706   0.00000   0.00000   0.00020
  83        3PX         0.00000   0.00000   0.00000   0.00000   0.00000
  84        3PY         0.00000   0.00000   0.00000   0.00000   0.00000
  85        3PZ         0.00009   0.00020   0.00000   0.00000   0.00001
  86 10  H  1S         -0.00002  -0.00094   0.00000   0.00000   0.00000
  87        2S         -0.00036  -0.00257   0.00000  -0.00003  -0.00001
  88        3PX         0.00000   0.00000   0.00000   0.00000   0.00000
  89        3PY         0.00000  -0.00007   0.00000   0.00000   0.00000
  90        3PZ         0.00000  -0.00007   0.00000   0.00000   0.00000
                          81        82        83        84        85
  81 9   H  1S          0.22308
  82        2S          0.12513   0.19577
  83        3PX         0.00000   0.00000   0.00021
  84        3PY         0.00000   0.00000   0.00000   0.00014
  85        3PZ         0.00000   0.00000   0.00000   0.00000   0.00035
  86 10  H  1S         -0.00002  -0.00094   0.00000   0.00000   0.00000
  87        2S         -0.00036  -0.00257   0.00000  -0.00003  -0.00001
  88        3PX         0.00000   0.00000   0.00000   0.00000   0.00000
  89        3PY         0.00000  -0.00007   0.00000   0.00000   0.00000
  90        3PZ         0.00000  -0.00007   0.00000   0.00000   0.00000
                          86        87        88        89        90
  86 10  H  1S          0.20783
  87        2S          0.06645   0.05906
  88        3PX         0.00000   0.00000   0.00167
  89        3PY         0.00000   0.00000   0.00000   0.00060
  90        3PZ         0.00000   0.00000   0.00000   0.00000   0.00087
     Gross orbital populations:
                           1
   1 1   O  1S          1.99247
   2        2S          0.89008
   3        2PX         0.91948
   4        2PY         0.84763
   5        2PZ         1.15663
   6        3S          0.98957
   7        3PX         0.53891
   8        3PY         0.47210
   9        3PZ         0.76900
  10        4XX        -0.00502
  11        4YY         0.00967
  12        4ZZ        -0.01424
  13        4XY         0.00425
  14        4XZ         0.00109
  15        4YZ         0.00300
  16 2   H  1S          0.49157
  17        2S          0.13683
  18        3PX         0.02056
  19        3PY         0.00796
  20        3PZ         0.01038
  21 3   C  1S          1.99199
  22        2S          0.69859
  23        2PX         0.72691
  24        2PY         0.57295
  25        2PZ         0.74233
  26        3S          0.50751
  27        3PX         0.26160
  28        3PY         0.11648
  29        3PZ         0.30744
  30        4XX        -0.00586
  31        4YY         0.00474
  32        4ZZ        -0.00978
  33        4XY         0.01082
  34        4XZ         0.00950
  35        4YZ         0.01582
  36 4   C  1S          1.99199
  37        2S          0.69859
  38        2PX         0.72691
  39        2PY         0.57295
  40        2PZ         0.74233
  41        3S          0.50751
  42        3PX         0.26160
  43        3PY         0.11648
  44        3PZ         0.30744
  45        4XX        -0.00586
  46        4YY         0.00474
  47        4ZZ        -0.00978
  48        4XY         0.01082
  49        4XZ         0.00950
  50        4YZ         0.01582
  51 5   H  1S          0.54013
  52        2S          0.35213
  53        3PX         0.00328
  54        3PY         0.00231
  55        3PZ         0.00568
  56 6   H  1S          0.54013
  57        2S          0.35213
  58        3PX         0.00328
  59        3PY         0.00231
  60        3PZ         0.00568
  61 7   O  1S          1.99247
  62        2S          0.89008
  63        2PX         0.91948
  64        2PY         0.84763
  65        2PZ         1.15663
  66        3S          0.98957
  67        3PX         0.53891
  68        3PY         0.47210
  69        3PZ         0.76900
  70        4XX        -0.00502
  71        4YY         0.00967
  72        4ZZ        -0.01424
  73        4XY         0.00425
  74        4XZ         0.00109
  75        4YZ         0.00300
  76 8   H  1S          0.54013
  77        2S          0.35213
  78        3PX         0.00328
  79        3PY         0.00231
  80        3PZ         0.00568
  81 9   H  1S          0.54013
  82        2S          0.35213
  83        3PX         0.00328
  84        3PY         0.00231
  85        3PZ         0.00568
  86 10  H  1S          0.49157
  87        2S          0.13683
  88        3PX         0.02056
  89        3PY         0.00796
  90        3PZ         0.01038
          Condensed to atoms (all electrons):
              1          2          3          4          5          6
     1  O    8.158122   0.289778   0.232155  -0.048019  -0.035205  -0.035205
     2  H    0.289778   0.402947  -0.022730   0.005942  -0.004063  -0.004063
     3  C    0.232155  -0.022730   4.762582   0.365012   0.369364   0.369364
     4  C   -0.048019   0.005942   0.365012   4.762582  -0.041316  -0.041316
     5  H   -0.035205  -0.004063   0.369364  -0.041316   0.669815  -0.057647
     6  H   -0.035205  -0.004063   0.369364  -0.041316  -0.057647   0.669815
     7  O    0.001028  -0.000103  -0.048019   0.232155   0.006026   0.006026
     8  H    0.006026  -0.000212  -0.041316   0.369364   0.007753  -0.010983
     9  H    0.006026  -0.000212  -0.041316   0.369364  -0.010983   0.007753
    10  H   -0.000103   0.000005   0.005942  -0.022730  -0.000212  -0.000212
              7          8          9         10
     1  O    0.001028   0.006026   0.006026  -0.000103
     2  H   -0.000103  -0.000212  -0.000212   0.000005
     3  C   -0.048019  -0.041316  -0.041316   0.005942
     4  C    0.232155   0.369364   0.369364  -0.022730
     5  H    0.006026   0.007753  -0.010983  -0.000212
     6  H    0.006026  -0.010983   0.007753  -0.000212
     7  O    8.158122  -0.035205  -0.035205   0.289778
     8  H   -0.035205   0.669815  -0.057647  -0.004063
     9  H   -0.035205  -0.057647   0.669815  -0.004063
    10  H    0.289778  -0.004063  -0.004063   0.402947
 Mulliken atomic charges:
              1
     1  O   -0.574603
     2  H    0.332709
     3  C    0.048961
     4  C    0.048961
     5  H    0.096467
     6  H    0.096467
     7  O   -0.574603
     8  H    0.096467
     9  H    0.096467
    10  H    0.332709
 Sum of Mulliken atomic charges =   0.00000
 Mulliken charges with hydrogens summed into heavy atoms:
              1
     1  O   -0.241894
     3  C    0.241894
     4  C    0.241894
     7  O   -0.241894
 Sum of Mulliken charges with hydrogens summed into heavy atoms =   0.00000
 Electronic spatial extent (au):  <R**2>=            341.2498
 Charge=              0.0000 electrons
 Dipole moment (field-independent basis, Debye):
    X=              0.0000    Y=              0.0000    Z=              0.0000  Tot=              0.0000
 Quadrupole moment (field-independent basis, Debye-Ang):
   XX=            -16.2899   YY=            -27.3156   ZZ=            -25.0774
   XY=             -5.8112   XZ=              0.0000   YZ=              0.0000
 Traceless Quadrupole moment (field-independent basis, Debye-Ang):
   XX=              6.6044   YY=             -4.4213   ZZ=             -2.1831
   XY=             -5.8112   XZ=              0.0000   YZ=              0.0000
 Octapole moment (field-independent basis, Debye-Ang**2):
  XXX=              0.0000  YYY=              0.0000  ZZZ=              0.0000  XYY=              0.0000
  XXY=              0.0000  XXZ=              0.0000  XZZ=              0.0000  YZZ=              0.0000
  YYZ=              0.0000  XYZ=              0.0000
 Hexadecapole moment (field-independent basis, Debye-Ang**3):
 XXXX=           -101.8968 YYYY=           -219.3911 ZZZZ=            -36.0032 XXXY=             18.9703
 XXXZ=              0.0000 YYYX=             21.9411 YYYZ=              0.0000 ZZZX=              0.0000
 ZZZY=              0.0000 XXYY=            -26.7570 XXZZ=            -26.8892 YYZZ=            -46.1723
 XXYZ=              0.0000 YYXZ=              0.0000 ZZXY=             18.1047
 N-N= 1.299946563166D+02 E-N=-8.000712168305D+02  KE= 2.282565025305D+02
 Symmetry AG   KE= 1.090648351781D+02
 Symmetry BG   KE= 6.675173733572D+00
 Symmetry AU   KE= 6.624910180440D+00
 Symmetry BU   KE= 1.058915834383D+02
 Orbital energies and kinetic energies (alpha):
                                 1                 2
   1         (BU)--O         -19.146105         29.028038
   2         (AG)--O         -19.146104         29.030703
   3         (AG)--O         -10.228418         15.884041
   4         (BU)--O         -10.228187         15.889811
   5         (AG)--O          -1.021981          2.460080
   6         (BU)--O          -1.011133          2.575075
   7         (AG)--O          -0.735464          1.690013
   8         (BU)--O          -0.603002          1.602707
   9         (BU)--O          -0.531961          1.627001
  10         (AU)--O          -0.478038          1.037697
  11         (AG)--O          -0.477432          1.747557
  12         (AG)--O          -0.410898          1.900928
  13         (BG)--O          -0.392597          1.380467
  14         (BU)--O          -0.356748          2.223160
  15         (AG)--O          -0.323714          1.819097
  16         (BG)--O          -0.271122          1.957120
  17         (AU)--O          -0.269724          2.274758
  18         (BU)--V           0.068895          1.349779
  19         (AG)--V           0.096659          1.077905
  20         (AG)--V           0.140305          1.179198
  21         (AU)--V           0.153634          0.944852
  22         (BU)--V           0.163829          1.222718
  23         (BU)--V           0.200744          1.826623
  24         (BG)--V           0.210800          1.145852
  25         (AG)--V           0.231734          1.926851
  26         (BU)--V           0.258901          2.121959
  27         (AG)--V           0.519389          1.851076
  28         (BU)--V           0.565998          2.254896
  29         (AG)--V           0.576427          2.364776
  30         (AU)--V           0.581713          1.763509
  31         (BU)--V           0.652444          2.580413
  32         (BG)--V           0.695320          2.369280
  33         (AG)--V           0.764653          2.665522
  34         (BU)--V           0.768011          2.438115
  35         (AU)--V           0.827480          2.474530
  36         (AG)--V           0.840497          2.422049
  37         (BG)--V           0.857200          2.540526
  38         (BU)--V           0.884078          2.820779
  39         (AG)--V           0.924005          2.455275
  40         (BU)--V           0.965078          2.779062
  41         (AU)--V           0.970595          3.386652
  42         (AG)--V           0.997878          2.938766
  43         (BU)--V           1.017492          2.763826
  44         (BG)--V           1.063301          2.934881
  45         (AG)--V           1.285898          2.701669
  46         (BU)--V           1.311372          2.621160
  47         (AU)--V           1.327542          2.382381
  48         (BU)--V           1.386434          2.536040
  49         (AG)--V           1.474543          2.669763
  50         (AG)--V           1.561027          2.691023
  51         (BG)--V           1.570505          2.564560
  52         (AU)--V           1.596819          2.578019
  53         (BG)--V           1.666664          2.668099
  54         (BU)--V           1.730649          2.778946
  55         (AG)--V           1.870059          3.296999
  56         (AG)--V           1.919823          3.338024
  57         (BG)--V           1.929057          2.989856
  58         (AU)--V           1.933836          2.992894
  59         (BU)--V           1.946386          3.019976
  60         (BU)--V           2.017156          3.683460
  61         (AU)--V           2.073099          3.145673
  62         (BG)--V           2.102977          3.177882
  63         (AG)--V           2.182719          3.462781
  64         (AU)--V           2.275517          3.110839
  65         (BU)--V           2.281013          3.518654
  66         (AG)--V           2.363863          3.657558
  67         (BU)--V           2.385205          3.701434
  68         (BG)--V           2.438206          3.441659
  69         (AG)--V           2.600030          3.672197
  70         (BU)--V           2.619164          3.738609
  71         (AU)--V           2.641989          3.620204
  72         (BG)--V           2.666515          3.605819
  73         (AU)--V           2.678320          3.735651
  74         (AG)--V           2.708792          3.709941
  75         (BU)--V           2.726251          4.069750
  76         (BU)--V           2.821841          4.306665
  77         (AG)--V           2.846669          4.281994
  78         (BG)--V           2.860334          3.997143
  79         (BU)--V           2.978299          4.306351
  80         (AG)--V           3.000890          4.248275
  81         (AG)--V           3.225316          4.830879
  82         (BU)--V           3.296625          5.174663
  83         (BG)--V           3.369089          4.942697
  84         (AG)--V           3.433588          6.749131
  85         (BU)--V           3.476732          6.044557
  86         (AU)--V           3.532259          5.159263
  87         (AG)--V           3.788853          8.844563
  88         (BU)--V           4.077482          9.846618
  89         (AG)--V           4.327985         10.038070
  90         (BU)--V           4.589888         10.201584
 Total kinetic energy from orbitals= 2.282565025305D+02
 No NMR shielding tensors so no spin-rotation constants.
 Leave Link  601 at Mon Mar 14 13:45:31 2022, MaxMem=  536870912 cpu:       0.9
 (Enter /opt/gridunesp/dist/gaussian/g09/l9999.exe)

 Test job not archived.
 1\1\GINC-NODE025\FOpt\RB3LYP\6-31G(d,p)\C2H6O2\RHEINHEIMER\14-Mar-2022
 \0\\#P B3LYP/6-31G(d,p) # Opt=tight SCRF=(Solvent=Water) # Gfinput IOP
 (6/7=3) Pop=full Density Test # Units(Ang,Deg)\\peg-1.xyz\\0,1\O,-0.04
 13100676,0.,-0.0065396849\H,-0.03313676,0.,0.9592807525\C,1.3118510505
 ,0.,-0.4497292919\C,1.2903110682,0.,-1.9702587105\H,1.8568177469,0.887
 8325454,-0.0967016336\H,1.8568177469,-0.8878325454,-0.0967016336\O,2.6
 434721864,0.,-2.4134483175\H,0.7453443719,-0.8878325454,-2.3232863688\
 H,0.7453443719,0.8878325454,-2.3232863688\H,2.6352988788,0.,-3.3792687
 548\\Version=EM64L-G09RevA.02\State=1-AG\HF=-230.2601934\RMSD=4.013e-0
 9\RMSF=3.004e-06\Dipole=0.,0.,0.\Quadrupole=-5.0489031,-1.6230525,6.67
 19556,0.,-1.0586294,0.\PG=C02H [SGH(C2H2O2),X(H4)]\\@


 AS FAR AS THE LAWS OF MATHEMATICS REFER TO REALITY,
 THEY ARE NOT CERTAIN; AND AS FAR AS THEY ARE CERTAIN,
 THEY DO NOT REFER TO REALITY.

                                         -- ALBERT EINSTEIN
 Job cpu time:  0 days  0 hours  4 minutes 16.6 seconds.
 File lengths (MBytes):  RWF=    107 Int=      0 D2E=      0 Chk=      4 Scr=      2
 Normal termination of Gaussian 09 at Mon Mar 14 13:45:31 2022.
