 Entering Gaussian System, Link 0=g09
 Input=peg-2_opt_g09.com
 Output=peg-2_opt_g09.log
 Initial command:
 /opt/gridunesp/dist/gaussian/g09/l1.exe /store/rheinheimer/2838052/Gau-56336.inp -scrdir=/store/rheinheimer/2838052/
 Entering Link 1 = /opt/gridunesp/dist/gaussian/g09/l1.exe PID=     56338.
  
 Copyright (c) 1988,1990,1992,1993,1995,1998,2003,2009, Gaussian, Inc.
                  All Rights Reserved.
  
 This is part of the Gaussian(R) 09 program.  It is based on
 the Gaussian(R) 03 system (copyright 2003, Gaussian, Inc.),
 the Gaussian(R) 98 system (copyright 1998, Gaussian, Inc.),
 the Gaussian(R) 94 system (copyright 1995, Gaussian, Inc.),
 the Gaussian 92(TM) system (copyright 1992, Gaussian, Inc.),
 the Gaussian 90(TM) system (copyright 1990, Gaussian, Inc.),
 the Gaussian 88(TM) system (copyright 1988, Gaussian, Inc.),
 the Gaussian 86(TM) system (copyright 1986, Carnegie Mellon
 University), and the Gaussian 82(TM) system (copyright 1983,
 Carnegie Mellon University). Gaussian is a federally registered
 trademark of Gaussian, Inc.
  
 This software contains proprietary and confidential information,
 including trade secrets, belonging to Gaussian, Inc.
  
 This software is provided under written license and may be
 used, copied, transmitted, or stored only in accord with that
 written license.
  
 The following legend is applicable only to US Government
 contracts under FAR:
  
                    RESTRICTED RIGHTS LEGEND
  
 Use, reproduction and disclosure by the US Government is
 subject to restrictions as set forth in subparagraphs (a)
 and (c) of the Commercial Computer Software - Restricted
 Rights clause in FAR 52.227-19.
  
 Gaussian, Inc.
 340 Quinnipiac St., Bldg. 40, Wallingford CT 06492
  
  
 ---------------------------------------------------------------
 Warning -- This program may not be used in any manner that
 competes with the business of Gaussian, Inc. or will provide
 assistance to any competitor of Gaussian, Inc.  The licensee
 of this program is prohibited from giving any competitor of
 Gaussian, Inc. access to this program.  By using this program,
 the user acknowledges that Gaussian, Inc. is engaged in the
 business of creating and licensing software in the field of
 computational chemistry and represents and warrants to the
 licensee that it is not a competitor of Gaussian, Inc. and that
 it will not use this program in any manner prohibited above.
 ---------------------------------------------------------------
  

 Cite this work as:
 Gaussian 09, Revision A.02,
 M. J. Frisch, G. W. Trucks, H. B. Schlegel, G. E. Scuseria, 
 M. A. Robb, J. R. Cheeseman, G. Scalmani, V. Barone, B. Mennucci, 
 G. A. Petersson, H. Nakatsuji, M. Caricato, X. Li, H. P. Hratchian, 
 A. F. Izmaylov, J. Bloino, G. Zheng, J. L. Sonnenberg, M. Hada, 
 M. Ehara, K. Toyota, R. Fukuda, J. Hasegawa, M. Ishida, T. Nakajima, 
 Y. Honda, O. Kitao, H. Nakai, T. Vreven, J. A. Montgomery, Jr., 
 J. E. Peralta, F. Ogliaro, M. Bearpark, J. J. Heyd, E. Brothers, 
 K. N. Kudin, V. N. Staroverov, R. Kobayashi, J. Normand, 
 K. Raghavachari, A. Rendell, J. C. Burant, S. S. Iyengar, J. Tomasi, 
 M. Cossi, N. Rega, J. M. Millam, M. Klene, J. E. Knox, J. B. Cross, 
 V. Bakken, C. Adamo, J. Jaramillo, R. Gomperts, R. E. Stratmann, 
 O. Yazyev, A. J. Austin, R. Cammi, C. Pomelli, J. W. Ochterski, 
 R. L. Martin, K. Morokuma, V. G. Zakrzewski, G. A. Voth, 
 P. Salvador, J. J. Dannenberg, S. Dapprich, A. D. Daniels, 
 O. Farkas, J. B. Foresman, J. V. Ortiz, J. Cioslowski, 
 and D. J. Fox, Gaussian, Inc., Wallingford CT, 2009.
 
 ******************************************
 Gaussian 09:  EM64L-G09RevA.02 11-Jun-2009
                14-Mar-2022 
 ******************************************
 %nproc=8
 Will use up to    8 processors via shared memory.
 %Mem=4GB
 ----------------------------------------------------------------------
 #P B3LYP/6-31G(d,p) # Opt=tight SCRF=(Solvent=Water) # Gfinput IOP(6/7
 =3) Pop=full Density Test # Units(Ang,Deg)
 ----------------------------------------------------------------------
 1/7=10,14=-1,18=20,19=15,26=3,38=1/1,3;
 2/9=110,12=2,17=6,18=5,40=1/2;
 3/5=1,6=6,7=101,11=2,16=1,24=10,25=1,30=1,70=2201,71=1,72=1,74=-5/1,2,3;
 4//1;
 5/5=2,38=5,53=1/2;
 6/7=3,22=-1,28=1/1;
 7//1,2,3,16;
 1/7=10,14=-1,18=20,19=15/3(2);
 2/9=110/2;
 99//99;
 2/9=110/2;
 3/5=1,6=6,7=101,11=2,16=1,25=1,30=1,70=2205,71=1,72=1,74=-5/1,2,3;
 4/5=5,16=3/1;
 5/5=2,38=5,53=1/2;
 7//1,2,3,16;
 1/7=10,14=-1,18=20,19=15/3(-5);
 2/9=110/2;
 6/7=3,19=2,22=-1,28=1/1;
 99/9=1/99;
 Leave Link    1 at Mon Mar 14 13:45:32 2022, MaxMem=  536870912 cpu:       0.4
 (Enter /opt/gridunesp/dist/gaussian/g09/l101.exe)
 ---------
 peg-2.xyz
 ---------
 Symbolic Z-matrix:
 Charge =  0 Multiplicity = 1
 O                     0.        0.        0. 
 H                     0.        0.        0.947 
 C                     1.30108   0.       -0.45999 
 C                     1.30108   0.       -1.95999 
 H                     1.80548   0.87365  -0.10333 
 H                     1.80548  -0.87365  -0.10333 
 C                     2.7153    0.       -2.45999 
 H                     0.79668  -0.87365  -2.31666 
 H                     0.79668   0.87365  -2.31666 
 O                     2.7153    0.       -3.83999 
 H                     3.2197    0.87365  -2.10332 
 H                     3.2197   -0.87365  -2.10332 
 H                     3.60815   0.       -4.15565 
 
 NAtoms=     13 NQM=     13 NQMF=      0 NMic=      0 NMicF=      0 NTot=     13.
                    Isotopes and Nuclear Properties:
 (Nuclear quadrupole moments (NQMom) in fm**2, nuclear magnetic moments (NMagM)
  in nuclear magnetons)

  Atom         1           2           3           4           5           6           7           8           9          10
 IAtWgt=          16           1          12          12           1           1          12           1           1          16
 AtmWgt=  15.9949146   1.0078250  12.0000000  12.0000000   1.0078250   1.0078250  12.0000000   1.0078250   1.0078250  15.9949146
 NucSpn=           0           1           0           0           1           1           0           1           1           0
 AtZEff=   0.0000000   0.0000000   0.0000000   0.0000000   0.0000000   0.0000000   0.0000000   0.0000000   0.0000000   0.0000000
 NQMom=    0.0000000   0.0000000   0.0000000   0.0000000   0.0000000   0.0000000   0.0000000   0.0000000   0.0000000   0.0000000
 NMagM=    0.0000000   2.7928460   0.0000000   0.0000000   2.7928460   2.7928460   0.0000000   2.7928460   2.7928460   0.0000000

  Atom        11          12          13
 IAtWgt=           1           1           1
 AtmWgt=   1.0078250   1.0078250   1.0078250
 NucSpn=           1           1           1
 AtZEff=   0.0000000   0.0000000   0.0000000
 NQMom=    0.0000000   0.0000000   0.0000000
 NMagM=    2.7928460   2.7928460   2.7928460
 Leave Link  101 at Mon Mar 14 13:45:32 2022, MaxMem=  536870912 cpu:       0.6
 (Enter /opt/gridunesp/dist/gaussian/g09/l103.exe)

 GradGradGradGradGradGradGradGradGradGradGradGradGradGradGradGradGradGrad
 Berny optimization.
 Initialization pass.
                           ----------------------------
                           !    Initial Parameters    !
                           ! (Angstroms and Degrees)  !
 --------------------------                            --------------------------
 ! Name  Definition              Value          Derivative Info.                !
 --------------------------------------------------------------------------------
 ! R1    R(1,2)                  0.947          estimate D2E/DX2                !
 ! R2    R(1,3)                  1.38           estimate D2E/DX2                !
 ! R3    R(3,4)                  1.5            estimate D2E/DX2                !
 ! R4    R(3,5)                  1.07           estimate D2E/DX2                !
 ! R5    R(3,6)                  1.07           estimate D2E/DX2                !
 ! R6    R(4,7)                  1.5            estimate D2E/DX2                !
 ! R7    R(4,8)                  1.07           estimate D2E/DX2                !
 ! R8    R(4,9)                  1.07           estimate D2E/DX2                !
 ! R9    R(7,10)                 1.38           estimate D2E/DX2                !
 ! R10   R(7,11)                 1.07           estimate D2E/DX2                !
 ! R11   R(7,12)                 1.07           estimate D2E/DX2                !
 ! R12   R(10,13)                0.947          estimate D2E/DX2                !
 ! A1    A(2,1,3)              109.4708         estimate D2E/DX2                !
 ! A2    A(1,3,4)              109.4708         estimate D2E/DX2                !
 ! A3    A(1,3,5)              109.4715         estimate D2E/DX2                !
 ! A4    A(1,3,6)              109.4715         estimate D2E/DX2                !
 ! A5    A(4,3,5)              109.4709         estimate D2E/DX2                !
 ! A6    A(4,3,6)              109.4709         estimate D2E/DX2                !
 ! A7    A(5,3,6)              109.4717         estimate D2E/DX2                !
 ! A8    A(3,4,7)              109.4711         estimate D2E/DX2                !
 ! A9    A(3,4,8)              109.4714         estimate D2E/DX2                !
 ! A10   A(3,4,9)              109.4714         estimate D2E/DX2                !
 ! A11   A(7,4,8)              109.4711         estimate D2E/DX2                !
 ! A12   A(7,4,9)              109.4711         estimate D2E/DX2                !
 ! A13   A(8,4,9)              109.4712         estimate D2E/DX2                !
 ! A14   A(4,7,10)             109.4711         estimate D2E/DX2                !
 ! A15   A(4,7,11)             109.4711         estimate D2E/DX2                !
 ! A16   A(4,7,12)             109.4711         estimate D2E/DX2                !
 ! A17   A(10,7,11)            109.4714         estimate D2E/DX2                !
 ! A18   A(10,7,12)            109.4714         estimate D2E/DX2                !
 ! A19   A(11,7,12)            109.4712         estimate D2E/DX2                !
 ! A20   A(7,10,13)            109.4706         estimate D2E/DX2                !
 ! D1    D(2,1,3,4)            180.0            estimate D2E/DX2                !
 ! D2    D(2,1,3,5)            -60.0005         estimate D2E/DX2                !
 ! D3    D(2,1,3,6)             60.0005         estimate D2E/DX2                !
 ! D4    D(1,3,4,7)            180.0            estimate D2E/DX2                !
 ! D5    D(1,3,4,8)            -60.0001         estimate D2E/DX2                !
 ! D6    D(1,3,4,9)             60.0001         estimate D2E/DX2                !
 ! D7    D(5,3,4,7)             60.0001         estimate D2E/DX2                !
 ! D8    D(5,3,4,8)            180.0            estimate D2E/DX2                !
 ! D9    D(5,3,4,9)            -59.9998         estimate D2E/DX2                !
 ! D10   D(6,3,4,7)            -60.0001         estimate D2E/DX2                !
 ! D11   D(6,3,4,8)             59.9998         estimate D2E/DX2                !
 ! D12   D(6,3,4,9)            180.0            estimate D2E/DX2                !
 ! D13   D(3,4,7,10)           180.0            estimate D2E/DX2                !
 ! D14   D(3,4,7,11)           -59.9999         estimate D2E/DX2                !
 ! D15   D(3,4,7,12)            59.9999         estimate D2E/DX2                !
 ! D16   D(8,4,7,10)            59.9999         estimate D2E/DX2                !
 ! D17   D(8,4,7,11)           180.0            estimate D2E/DX2                !
 ! D18   D(8,4,7,12)           -60.0002         estimate D2E/DX2                !
 ! D19   D(9,4,7,10)           -59.9999         estimate D2E/DX2                !
 ! D20   D(9,4,7,11)            60.0002         estimate D2E/DX2                !
 ! D21   D(9,4,7,12)           180.0            estimate D2E/DX2                !
 ! D22   D(4,7,10,13)          180.0            estimate D2E/DX2                !
 ! D23   D(11,7,10,13)          60.0001         estimate D2E/DX2                !
 ! D24   D(12,7,10,13)         -60.0001         estimate D2E/DX2                !
 --------------------------------------------------------------------------------
 Trust Radius=3.00D-01 FncErr=1.00D-07 GrdErr=1.00D-06
 Number of steps in this run=  66 maximum allowed number of steps= 100.
 GradGradGradGradGradGradGradGradGradGradGradGradGradGradGradGradGradGrad

 Leave Link  103 at Mon Mar 14 13:45:32 2022, MaxMem=  536870912 cpu:       0.0
 (Enter /opt/gridunesp/dist/gaussian/g09/l202.exe)
                          Input orientation:                          
 ---------------------------------------------------------------------
 Center     Atomic      Atomic             Coordinates (Angstroms)
 Number     Number       Type             X           Y           Z
 ---------------------------------------------------------------------
      1          8           0        0.000000    0.000000    0.000000
      2          1           0        0.000000    0.000000    0.947000
      3          6           0        1.301080    0.000000   -0.459990
      4          6           0        1.301080    0.000000   -1.959990
      5          1           0        1.805480    0.873650   -0.103330
      6          1           0        1.805480   -0.873650   -0.103330
      7          6           0        2.715300    0.000000   -2.459990
      8          1           0        0.796680   -0.873650   -2.316660
      9          1           0        0.796680    0.873650   -2.316660
     10          8           0        2.715300    0.000000   -3.839990
     11          1           0        3.219700    0.873650   -2.103320
     12          1           0        3.219700   -0.873650   -2.103320
     13          1           0        3.608150    0.000000   -4.155650
 ---------------------------------------------------------------------
                    Distance matrix (angstroms):
                    1          2          3          4          5
     1  O    0.000000
     2  H    0.947000   0.000000
     3  C    1.380000   1.916359   0.000000
     4  C    2.352524   3.184870   1.500000   0.000000
     5  H    2.008407   2.264115   1.069995   2.113024   0.000000
     6  H    2.008407   2.264115   1.069995   2.113024   1.747300
     7  C    3.663933   4.356654   2.449493   1.500006   2.672991
     8  H    2.600938   3.471230   2.113033   1.069999   2.994923
     9  H    2.600938   3.471230   2.113033   1.069999   2.432387
    10  O    4.703018   5.503465   3.663935   2.352534   3.943813
    11  H    3.943816   4.520419   2.672995   2.113033   2.449485
    12  H    3.943816   4.520419   2.672995   2.113033   3.008826
    13  H    5.503469   6.249463   4.356659   3.184885   4.520418
                    6          7          8          9         10
     6  H    0.000000
     7  C    2.672991   0.000000
     8  H    2.432387   2.113033   0.000000
     9  H    2.994923   2.113033   1.747300   0.000000
    10  O    3.943813   1.380000   2.600942   2.600942   0.000000
    11  H    3.008826   1.069999   2.994929   2.432394   2.008409
    12  H    2.449485   1.069999   2.432394   2.994929   2.008409
    13  H    4.520418   1.916362   3.471241   3.471241   0.947007
                   11         12         13
    11  H    0.000000
    12  H    1.747300   0.000000
    13  H    2.264115   2.264115   0.000000
 Stoichiometry    C3H8O2
 Framework group  CS[SG(C3H2O2),X(H6)]
 Deg. of freedom    20
 Full point group                 CS      NOp   2
 Largest Abelian subgroup         CS      NOp   2
 Largest concise Abelian subgroup CS      NOp   2
                         Standard orientation:                         
 ---------------------------------------------------------------------
 Center     Atomic      Atomic             Coordinates (Angstroms)
 Number     Number       Type             X           Y           Z
 ---------------------------------------------------------------------
      1          8           0       -1.639977   -1.720357    0.000000
      2          1           0       -1.639977   -2.667357    0.000000
      3          6           0       -0.338897   -1.260367    0.000000
      4          6           0       -0.338897    0.239633    0.000000
      5          1           0        0.165503   -1.617027    0.873650
      6          1           0        0.165503   -1.617027   -0.873650
      7          6           0        1.075323    0.739633    0.000000
      8          1           0       -0.843297    0.596303   -0.873650
      9          1           0       -0.843297    0.596303    0.873650
     10          8           0        1.075323    2.119633    0.000000
     11          1           0        1.579723    0.382963    0.873650
     12          1           0        1.579723    0.382963   -0.873650
     13          1           0        1.968173    2.435293    0.000000
 ---------------------------------------------------------------------
 Rotational constants (GHZ):     22.8301262      2.0777487      1.9730609
 Leave Link  202 at Mon Mar 14 13:45:32 2022, MaxMem=  536870912 cpu:       0.1
 (Enter /opt/gridunesp/dist/gaussian/g09/l301.exe)
 Standard basis: 6-31G(d,p) (6D, 7F)
 Ernie: Thresh=  0.10000D-02 Tol=  0.10000D-05 Strict=F.
 AO basis set in the form of general basis input (Overlap normalization):
      1 0
 S   6 1.00       0.000000000000
      0.5484671660D+04  0.1831074430D-02
      0.8252349460D+03  0.1395017220D-01
      0.1880469580D+03  0.6844507810D-01
      0.5296450000D+02  0.2327143360D+00
      0.1689757040D+02  0.4701928980D+00
      0.5799635340D+01  0.3585208530D+00
 SP   3 1.00       0.000000000000
      0.1553961625D+02 -0.1107775495D+00  0.7087426823D-01
      0.3599933586D+01 -0.1480262627D+00  0.3397528391D+00
      0.1013761750D+01  0.1130767015D+01  0.7271585773D+00
 SP   1 1.00       0.000000000000
      0.2700058226D+00  0.1000000000D+01  0.1000000000D+01
 D   1 1.00       0.000000000000
      0.8000000000D+00  0.1000000000D+01
 ****
      2 0
 S   3 1.00       0.000000000000
      0.1873113696D+02  0.3349460434D-01
      0.2825394365D+01  0.2347269535D+00
      0.6401216923D+00  0.8137573261D+00
 S   1 1.00       0.000000000000
      0.1612777588D+00  0.1000000000D+01
 P   1 1.00       0.000000000000
      0.1100000000D+01  0.1000000000D+01
 ****
      3 0
 S   6 1.00       0.000000000000
      0.3047524880D+04  0.1834737132D-02
      0.4573695180D+03  0.1403732281D-01
      0.1039486850D+03  0.6884262226D-01
      0.2921015530D+02  0.2321844432D+00
      0.9286662960D+01  0.4679413484D+00
      0.3163926960D+01  0.3623119853D+00
 SP   3 1.00       0.000000000000
      0.7868272350D+01 -0.1193324198D+00  0.6899906659D-01
      0.1881288540D+01 -0.1608541517D+00  0.3164239610D+00
      0.5442492580D+00  0.1143456438D+01  0.7443082909D+00
 SP   1 1.00       0.000000000000
      0.1687144782D+00  0.1000000000D+01  0.1000000000D+01
 D   1 1.00       0.000000000000
      0.8000000000D+00  0.1000000000D+01
 ****
      4 0
 S   6 1.00       0.000000000000
      0.3047524880D+04  0.1834737132D-02
      0.4573695180D+03  0.1403732281D-01
      0.1039486850D+03  0.6884262226D-01
      0.2921015530D+02  0.2321844432D+00
      0.9286662960D+01  0.4679413484D+00
      0.3163926960D+01  0.3623119853D+00
 SP   3 1.00       0.000000000000
      0.7868272350D+01 -0.1193324198D+00  0.6899906659D-01
      0.1881288540D+01 -0.1608541517D+00  0.3164239610D+00
      0.5442492580D+00  0.1143456438D+01  0.7443082909D+00
 SP   1 1.00       0.000000000000
      0.1687144782D+00  0.1000000000D+01  0.1000000000D+01
 D   1 1.00       0.000000000000
      0.8000000000D+00  0.1000000000D+01
 ****
      5 0
 S   3 1.00       0.000000000000
      0.1873113696D+02  0.3349460434D-01
      0.2825394365D+01  0.2347269535D+00
      0.6401216923D+00  0.8137573261D+00
 S   1 1.00       0.000000000000
      0.1612777588D+00  0.1000000000D+01
 P   1 1.00       0.000000000000
      0.1100000000D+01  0.1000000000D+01
 ****
      6 0
 S   3 1.00       0.000000000000
      0.1873113696D+02  0.3349460434D-01
      0.2825394365D+01  0.2347269535D+00
      0.6401216923D+00  0.8137573261D+00
 S   1 1.00       0.000000000000
      0.1612777588D+00  0.1000000000D+01
 P   1 1.00       0.000000000000
      0.1100000000D+01  0.1000000000D+01
 ****
      7 0
 S   6 1.00       0.000000000000
      0.3047524880D+04  0.1834737132D-02
      0.4573695180D+03  0.1403732281D-01
      0.1039486850D+03  0.6884262226D-01
      0.2921015530D+02  0.2321844432D+00
      0.9286662960D+01  0.4679413484D+00
      0.3163926960D+01  0.3623119853D+00
 SP   3 1.00       0.000000000000
      0.7868272350D+01 -0.1193324198D+00  0.6899906659D-01
      0.1881288540D+01 -0.1608541517D+00  0.3164239610D+00
      0.5442492580D+00  0.1143456438D+01  0.7443082909D+00
 SP   1 1.00       0.000000000000
      0.1687144782D+00  0.1000000000D+01  0.1000000000D+01
 D   1 1.00       0.000000000000
      0.8000000000D+00  0.1000000000D+01
 ****
      8 0
 S   3 1.00       0.000000000000
      0.1873113696D+02  0.3349460434D-01
      0.2825394365D+01  0.2347269535D+00
      0.6401216923D+00  0.8137573261D+00
 S   1 1.00       0.000000000000
      0.1612777588D+00  0.1000000000D+01
 P   1 1.00       0.000000000000
      0.1100000000D+01  0.1000000000D+01
 ****
      9 0
 S   3 1.00       0.000000000000
      0.1873113696D+02  0.3349460434D-01
      0.2825394365D+01  0.2347269535D+00
      0.6401216923D+00  0.8137573261D+00
 S   1 1.00       0.000000000000
      0.1612777588D+00  0.1000000000D+01
 P   1 1.00       0.000000000000
      0.1100000000D+01  0.1000000000D+01
 ****
     10 0
 S   6 1.00       0.000000000000
      0.5484671660D+04  0.1831074430D-02
      0.8252349460D+03  0.1395017220D-01
      0.1880469580D+03  0.6844507810D-01
      0.5296450000D+02  0.2327143360D+00
      0.1689757040D+02  0.4701928980D+00
      0.5799635340D+01  0.3585208530D+00
 SP   3 1.00       0.000000000000
      0.1553961625D+02 -0.1107775495D+00  0.7087426823D-01
      0.3599933586D+01 -0.1480262627D+00  0.3397528391D+00
      0.1013761750D+01  0.1130767015D+01  0.7271585773D+00
 SP   1 1.00       0.000000000000
      0.2700058226D+00  0.1000000000D+01  0.1000000000D+01
 D   1 1.00       0.000000000000
      0.8000000000D+00  0.1000000000D+01
 ****
     11 0
 S   3 1.00       0.000000000000
      0.1873113696D+02  0.3349460434D-01
      0.2825394365D+01  0.2347269535D+00
      0.6401216923D+00  0.8137573261D+00
 S   1 1.00       0.000000000000
      0.1612777588D+00  0.1000000000D+01
 P   1 1.00       0.000000000000
      0.1100000000D+01  0.1000000000D+01
 ****
     12 0
 S   3 1.00       0.000000000000
      0.1873113696D+02  0.3349460434D-01
      0.2825394365D+01  0.2347269535D+00
      0.6401216923D+00  0.8137573261D+00
 S   1 1.00       0.000000000000
      0.1612777588D+00  0.1000000000D+01
 P   1 1.00       0.000000000000
      0.1100000000D+01  0.1000000000D+01
 ****
     13 0
 S   3 1.00       0.000000000000
      0.1873113696D+02  0.3349460434D-01
      0.2825394365D+01  0.2347269535D+00
      0.6401216923D+00  0.8137573261D+00
 S   1 1.00       0.000000000000
      0.1612777588D+00  0.1000000000D+01
 P   1 1.00       0.000000000000
      0.1100000000D+01  0.1000000000D+01
 ****

 There are    78 symmetry adapted basis functions of A'  symmetry.
 There are    37 symmetry adapted basis functions of A"  symmetry.
 Integral buffers will be    131072 words long.
 Raffenetti 2 integral format.
 Two-electron integral symmetry is turned on.
   115 basis functions,   196 primitive gaussians,   115 cartesian basis functions
    21 alpha electrons       21 beta electrons
       nuclear repulsion energy       189.0738083556 Hartrees.
 IExCor=  402 DFT=T Ex+Corr=B3LYP ExCW=0 ScaHFX=  0.200000
 ScaDFX=  0.800000  0.720000  1.000000  0.810000 ScalE2=  1.000000  1.000000
 IRadAn=      0 IRanWt=     -1 IRanGd=            0 ICorTp=0
 NAtoms=   13 NActive=   13 NUniq=   10 SFac= 1.27D+00 NAtFMM=   80 NAOKFM=F Big=F
 ------------------------------------------------------------------------------
 Polarizable Continuum Model (PCM)
 =================================
 Model                : PCM.
 Atomic radii         : UFF (Universal Force Field).
 Polarization charges : Total charges.
 Charge compensation  : None.
 Solution method      : Matrix inversion.
 Cavity type          : Scaled VdW (van der Waals Surface) (Alpha=1.100).
 Cavity algorithm     : GePol (No added spheres)
                        Default sphere list used, NSphG=   13.
                        Lebedev-Laikov grids with approx.  5.0 points / Ang**2.
                        Smoothing algorithm: Karplus/York (Gamma=1.0000).
                        Polarization charges: spherical gaussians, with
                                              point-specific exponents (IZeta= 3).
                        Self-potential: point-specific (ISelfS= 7).
                        Self-field    : sphere-specific E.n sum rule (ISelfD= 2).
 1st derivatives      : Analytical E(r).r(x)/FMM algorithm (CHGder, D1EAlg=3).
                        Cavity 1st derivative terms included.
 Solvent              : Water, Eps=  78.355300 Eps(inf)=   1.777849
 ------------------------------------------------------------------------------
 Spheres list:
 ISph  on   Nord    Re0     Alpha      Xe            Ye            Ze
    1   O      1    1.750   1.100     -1.639977     -1.720357      0.000000
    2   H      2    1.443   1.100     -1.639977     -2.667357      0.000000
    3   C      3    1.926   1.100     -0.338897     -1.260367      0.000000
    4   C      4    1.926   1.100     -0.338897      0.239633      0.000000
    5   H      5    1.443   1.100      0.165503     -1.617027      0.873650
    6   H      6    1.443   1.100      0.165503     -1.617027     -0.873650
    7   C      7    1.926   1.100      1.075323      0.739633      0.000000
    8   H      8    1.443   1.100     -0.843297      0.596303     -0.873650
    9   H      9    1.443   1.100     -0.843297      0.596303      0.873650
   10   O     10    1.750   1.100      1.075323      2.119633      0.000000
   11   H     11    1.443   1.100      1.579723      0.382963      0.873650
   12   H     12    1.443   1.100      1.579723      0.382963     -0.873650
   13   H     13    1.443   1.100      1.968173      2.435293      0.000000
 ------------------------------------------------------------------------------
 GePol: Number of generator spheres                  =      13
 GePol: Total number of spheres                      =      13
 GePol: Number of exposed spheres                    =      13 (100.00%)
 GePol: Number of points                             =    1098
 GePol: Average weight of points                     =       0.13
 GePol: Minimum weight of points                     =   0.46D-07
 GePol: Maximum weight of points                     =    0.20299
 GePol: Number of points with low weight             =      49
 GePol: Fraction of low-weight points (<1% of avg)   =       4.46%
 GePol: Cavity surface area                          =    142.291 Ang**2
 GePol: Cavity volume                                =    126.517 Ang**3
 Leave Link  301 at Mon Mar 14 13:45:32 2022, MaxMem=  536870912 cpu:       0.4
 (Enter /opt/gridunesp/dist/gaussian/g09/l302.exe)
 NPDir=0 NMtPBC=     1 NCelOv=     1 NCel=       1 NClECP=     1 NCelD=      1
         NCelK=      1 NCelE2=     1 NClLst=     1 CellRange=     0.0.
 One-electron integrals computed using PRISM.
 One-electron integral symmetry used in STVInt
 NBasis=   115 RedAO= T  NBF=    78    37
 NBsUse=   115 1.00D-06 NBFU=    78    37
 Precomputing XC quadrature grid using
 IXCGrd= 2 IRadAn=           0 IRanWt=          -1 IRanGd=           0 AccXCQ= 1.00D-10.
 NRdTot=     813 NPtTot=      102508 NUsed=      108381 NTot=      108413
 NSgBfM=   115   115   115   115   115 NAtAll=    13    13.
 Leave Link  302 at Mon Mar 14 13:45:32 2022, MaxMem=  536870912 cpu:       1.0
 (Enter /opt/gridunesp/dist/gaussian/g09/l303.exe)
 DipDrv:  MaxL=1.
 Leave Link  303 at Mon Mar 14 13:45:32 2022, MaxMem=  536870912 cpu:       0.3
 (Enter /opt/gridunesp/dist/gaussian/g09/l401.exe)
 Harris functional with IExCor=  402 diagonalized for initial guess.
 ExpMin= 1.61D-01 ExpMax= 5.48D+03 ExpMxC= 8.25D+02 IAcc=1 IRadAn=         1 AccDes= 0.00D+00
 HarFok:  IExCor=  402 AccDes= 0.00D+00 IRadAn=         1 IDoV= 1
 ScaDFX=  1.000000  1.000000  1.000000  1.000000
 FoFCou: FMM=F IPFlag=           0 FMFlag=      100000 FMFlg1=           0
         NFxFlg=           0 DoJE=T BraDBF=F KetDBF=T FulRan=T
         Omega=  0.000000  0.000000  1.000000  0.000000  0.000000 ICntrl=     500 IOpCl=  0
         NMat0=    1 NMatS0=    1 NMatT0=    0 NMatD0=    1 NMtDS0=    0 NMtDT0=    0
         I1Cent=           4 NGrid=           0.
 Petite list used in FoFCou.
 Harris En= -269.637214665406    
 Initial guess orbital symmetries:
       Occupied  (A') (A') (A') (A') (A') (A') (A') (A') (A') (A')
                 (A') (A') (A") (A") (A') (A') (A") (A') (A') (A")
                 (A")
       Virtual   (A') (A') (A') (A") (A') (A') (A') (A") (A") (A')
                 (A') (A') (A') (A') (A') (A") (A') (A") (A') (A')
                 (A") (A') (A') (A") (A') (A") (A") (A') (A') (A')
                 (A") (A') (A') (A') (A") (A') (A") (A') (A') (A')
                 (A') (A") (A") (A") (A') (A') (A") (A') (A') (A')
                 (A") (A') (A") (A') (A") (A') (A") (A") (A') (A")
                 (A") (A') (A') (A') (A") (A') (A") (A') (A') (A")
                 (A') (A") (A') (A') (A") (A') (A') (A') (A") (A')
                 (A') (A') (A') (A") (A') (A') (A") (A') (A") (A')
                 (A') (A') (A') (A')
 The electronic state of the initial guess is 1-A'.
 Leave Link  401 at Mon Mar 14 13:45:32 2022, MaxMem=  536870912 cpu:       1.3
 (Enter /opt/gridunesp/dist/gaussian/g09/l502.exe)
 Closed shell SCF:
 Requested convergence on RMS density matrix=1.00D-08 within 128 cycles.
 Requested convergence on MAX density matrix=1.00D-06.
 Requested convergence on             energy=1.00D-06.
 No special actions if energy rises.
 Using DIIS extrapolation, IDIIS=  1040.
 Integral symmetry usage will be decided dynamically.
       108251 words used for storage of precomputed grid.
 Keep R1 ints in memory in canonical form, NReq=26781616.
 IEnd=      168026 IEndB=      168026 NGot=   536870912 MDV=   514485054
 LenX=   514485054 LenY=   514471388
 Symmetry not used in FoFDir.
 MinBra= 0 MaxBra= 2 Meth= 1.
 IRaf=       0 NMat=   1 IRICut=       1 DoRegI=T DoRafI=F ISym2E= 0 JSym2E=0.

 Cycle   1  Pass 1  IDiag  1:
 E= -269.385493405298    
 DIIS: error= 4.35D-02 at cycle   1 NSaved=   1.
 NSaved= 1 IEnMin= 1 EnMin= -269.385493405298     IErMin= 1 ErrMin= 4.35D-02
 ErrMax= 4.35D-02 EMaxC= 1.00D-01 BMatC= 2.02D-01 BMatP= 2.02D-01
 IDIUse=3 WtCom= 5.65D-01 WtEn= 4.35D-01
 Coeff-Com:  0.100D+01
 Coeff-En:   0.100D+01
 Coeff:      0.100D+01
 Gap=     0.305 Goal=   None    Shift=    0.000
 GapD=    0.305 DampG=1.000 DampE=0.500 DampFc=0.5000 IDamp=-1.
 Damping current iteration by 5.00D-01
 RMSDP=8.17D-03 MaxDP=1.37D-01              OVMax= 1.59D-01

 Cycle   2  Pass 1  IDiag  1:
 E= -269.464969975297     Delta-E=       -0.079476569999 Rises=F Damp=T
 DIIS: error= 8.07D-03 at cycle   2 NSaved=   2.
 NSaved= 2 IEnMin= 2 EnMin= -269.464969975297     IErMin= 2 ErrMin= 8.07D-03
 ErrMax= 8.07D-03 EMaxC= 1.00D-01 BMatC= 8.88D-03 BMatP= 2.02D-01
 IDIUse=3 WtCom= 9.19D-01 WtEn= 8.07D-02
 Coeff-Com:  0.998D-01 0.900D+00
 Coeff-En:   0.143D+00 0.857D+00
 Coeff:      0.103D+00 0.897D+00
 Gap=     0.351 Goal=   None    Shift=    0.000
 RMSDP=1.07D-03 MaxDP=1.24D-02 DE=-7.95D-02 OVMax= 8.25D-02

 Cycle   3  Pass 1  IDiag  1:
 E= -269.566927487777     Delta-E=       -0.101957512479 Rises=F Damp=F
 DIIS: error= 3.38D-03 at cycle   3 NSaved=   3.
 NSaved= 3 IEnMin= 3 EnMin= -269.566927487777     IErMin= 3 ErrMin= 3.38D-03
 ErrMax= 3.38D-03 EMaxC= 1.00D-01 BMatC= 1.78D-03 BMatP= 8.88D-03
 IDIUse=3 WtCom= 9.66D-01 WtEn= 3.38D-02
 Coeff-Com:  0.122D-01 0.273D+00 0.715D+00
 Coeff-En:   0.000D+00 0.000D+00 0.100D+01
 Coeff:      0.118D-01 0.264D+00 0.724D+00
 Gap=     0.346 Goal=   None    Shift=    0.000
 RMSDP=4.69D-04 MaxDP=8.40D-03 DE=-1.02D-01 OVMax= 1.20D-02

 Cycle   4  Pass 1  IDiag  1:
 E= -269.567755755742     Delta-E=       -0.000828267966 Rises=F Damp=F
 DIIS: error= 2.08D-03 at cycle   4 NSaved=   4.
 NSaved= 4 IEnMin= 4 EnMin= -269.567755755742     IErMin= 4 ErrMin= 2.08D-03
 ErrMax= 2.08D-03 EMaxC= 1.00D-01 BMatC= 7.38D-04 BMatP= 1.78D-03
 IDIUse=3 WtCom= 9.79D-01 WtEn= 2.08D-02
 Coeff-Com: -0.353D-03 0.505D-01 0.399D+00 0.551D+00
 Coeff-En:   0.000D+00 0.000D+00 0.304D+00 0.696D+00
 Coeff:     -0.345D-03 0.495D-01 0.397D+00 0.554D+00
 Gap=     0.347 Goal=   None    Shift=    0.000
 RMSDP=2.02D-04 MaxDP=3.75D-03 DE=-8.28D-04 OVMax= 4.65D-03

 Cycle   5  Pass 1  IDiag  1:
 E= -269.568363822637     Delta-E=       -0.000608066895 Rises=F Damp=F
 DIIS: error= 2.25D-04 at cycle   5 NSaved=   5.
 NSaved= 5 IEnMin= 5 EnMin= -269.568363822637     IErMin= 5 ErrMin= 2.25D-04
 ErrMax= 2.25D-04 EMaxC= 1.00D-01 BMatC= 5.77D-06 BMatP= 7.38D-04
 IDIUse=3 WtCom= 9.98D-01 WtEn= 2.25D-03
 Coeff-Com: -0.138D-03-0.103D-04 0.716D-01 0.146D+00 0.782D+00
 Coeff-En:   0.000D+00 0.000D+00 0.000D+00 0.000D+00 0.100D+01
 Coeff:     -0.138D-03-0.103D-04 0.714D-01 0.146D+00 0.783D+00
 Gap=     0.347 Goal=   None    Shift=    0.000
 RMSDP=1.88D-05 MaxDP=3.60D-04 DE=-6.08D-04 OVMax= 4.49D-04

 Cycle   6  Pass 1  IDiag  1:
 E= -269.568368523858     Delta-E=       -0.000004701221 Rises=F Damp=F
 DIIS: error= 4.08D-05 at cycle   6 NSaved=   6.
 NSaved= 6 IEnMin= 6 EnMin= -269.568368523858     IErMin= 6 ErrMin= 4.08D-05
 ErrMax= 4.08D-05 EMaxC= 1.00D-01 BMatC= 2.21D-07 BMatP= 5.77D-06
 IDIUse=1 WtCom= 1.00D+00 WtEn= 0.00D+00
 Coeff-Com: -0.159D-04-0.775D-03 0.236D-01 0.520D-01 0.316D+00 0.609D+00
 Coeff:     -0.159D-04-0.775D-03 0.236D-01 0.520D-01 0.316D+00 0.609D+00
 Gap=     0.347 Goal=   None    Shift=    0.000
 RMSDP=4.05D-06 MaxDP=1.16D-04 DE=-4.70D-06 OVMax= 1.20D-04

 Cycle   7  Pass 1  IDiag  1:
 E= -269.568368712111     Delta-E=       -0.000000188252 Rises=F Damp=F
 DIIS: error= 1.21D-05 at cycle   7 NSaved=   7.
 NSaved= 7 IEnMin= 7 EnMin= -269.568368712111     IErMin= 7 ErrMin= 1.21D-05
 ErrMax= 1.21D-05 EMaxC= 1.00D-01 BMatC= 1.55D-08 BMatP= 2.21D-07
 IDIUse=1 WtCom= 1.00D+00 WtEn= 0.00D+00
 Coeff-Com:  0.325D-04-0.313D-03 0.218D-02 0.620D-02 0.480D-01 0.233D+00
 Coeff-Com:  0.711D+00
 Coeff:      0.325D-04-0.313D-03 0.218D-02 0.620D-02 0.480D-01 0.233D+00
 Coeff:      0.711D+00
 Gap=     0.347 Goal=   None    Shift=    0.000
 RMSDP=9.20D-07 MaxDP=2.73D-05 DE=-1.88D-07 OVMax= 2.43D-05

 Cycle   8  Pass 1  IDiag  1:
 E= -269.568368725915     Delta-E=       -0.000000013804 Rises=F Damp=F
 DIIS: error= 1.31D-06 at cycle   8 NSaved=   8.
 NSaved= 8 IEnMin= 8 EnMin= -269.568368725915     IErMin= 8 ErrMin= 1.31D-06
 ErrMax= 1.31D-06 EMaxC= 1.00D-01 BMatC= 2.77D-10 BMatP= 1.55D-08
 IDIUse=1 WtCom= 1.00D+00 WtEn= 0.00D+00
 Coeff-Com:  0.985D-05-0.376D-04-0.620D-03-0.918D-03-0.390D-02 0.242D-01
 Coeff-Com:  0.167D+00 0.815D+00
 Coeff:      0.985D-05-0.376D-04-0.620D-03-0.918D-03-0.390D-02 0.242D-01
 Coeff:      0.167D+00 0.815D+00
 Gap=     0.347 Goal=   None    Shift=    0.000
 RMSDP=1.34D-07 MaxDP=2.43D-06 DE=-1.38D-08 OVMax= 3.49D-06

 Cycle   9  Pass 1  IDiag  1:
 E= -269.568368726155     Delta-E=       -0.000000000241 Rises=F Damp=F
 DIIS: error= 1.22D-07 at cycle   9 NSaved=   9.
 NSaved= 9 IEnMin= 9 EnMin= -269.568368726155     IErMin= 9 ErrMin= 1.22D-07
 ErrMax= 1.22D-07 EMaxC= 1.00D-01 BMatC= 2.08D-12 BMatP= 2.77D-10
 IDIUse=1 WtCom= 1.00D+00 WtEn= 0.00D+00
 Coeff-Com:  0.507D-07 0.140D-05-0.964D-04-0.147D-03-0.974D-03 0.271D-03
 Coeff-Com:  0.120D-01 0.884D-01 0.901D+00
 Coeff:      0.507D-07 0.140D-05-0.964D-04-0.147D-03-0.974D-03 0.271D-03
 Coeff:      0.120D-01 0.884D-01 0.901D+00
 Gap=     0.347 Goal=   None    Shift=    0.000
 RMSDP=1.57D-08 MaxDP=2.35D-07 DE=-2.41D-10 OVMax= 4.10D-07

 Cycle  10  Pass 1  IDiag  1:
 E= -269.568368726158     Delta-E=       -0.000000000002 Rises=F Damp=F
 DIIS: error= 1.63D-08 at cycle  10 NSaved=  10.
 NSaved=10 IEnMin=10 EnMin= -269.568368726158     IErMin=10 ErrMin= 1.63D-08
 ErrMax= 1.63D-08 EMaxC= 1.00D-01 BMatC= 4.51D-14 BMatP= 2.08D-12
 IDIUse=1 WtCom= 1.00D+00 WtEn= 0.00D+00
 Coeff-Com: -0.254D-06 0.906D-06-0.872D-05-0.134D-04-0.129D-03-0.335D-03
 Coeff-Com: -0.657D-03 0.224D-02 0.177D+00 0.822D+00
 Coeff:     -0.254D-06 0.906D-06-0.872D-05-0.134D-04-0.129D-03-0.335D-03
 Coeff:     -0.657D-03 0.224D-02 0.177D+00 0.822D+00
 Gap=     0.347 Goal=   None    Shift=    0.000
 RMSDP=2.03D-09 MaxDP=3.22D-08 DE=-2.22D-12 OVMax= 4.82D-08

 Error on total polarization charges =  0.00541
 SCF Done:  E(RB3LYP) =  -269.568368726     A.U. after   10 cycles
             Convg  =    0.2033D-08             -V/T =  2.0067
 KE= 2.677734018600D+02 PE=-1.009419885898D+03 EE= 2.830043069566D+02
 Leave Link  502 at Mon Mar 14 13:45:37 2022, MaxMem=  536870912 cpu:      34.6
 (Enter /opt/gridunesp/dist/gaussian/g09/l601.exe)
 Copying SCF densities to generalized density rwf, IOpCl= 0 IROHF=0.

 **********************************************************************

            Population analysis using the SCF density.

 **********************************************************************

 Orbital symmetries:
       Occupied  (A') (A') (A') (A') (A') (A') (A') (A') (A') (A')
                 (A') (A') (A") (A") (A') (A') (A") (A') (A') (A")
                 (A")
       Virtual   (A') (A') (A') (A") (A') (A') (A') (A") (A") (A')
                 (A') (A') (A') (A') (A") (A') (A') (A") (A') (A')
                 (A") (A') (A') (A") (A') (A") (A') (A") (A') (A')
                 (A') (A") (A') (A') (A") (A') (A") (A') (A') (A')
                 (A') (A") (A") (A') (A") (A') (A") (A') (A') (A')
                 (A') (A") (A") (A') (A") (A') (A") (A") (A') (A")
                 (A") (A') (A') (A') (A") (A') (A") (A') (A') (A")
                 (A") (A') (A') (A') (A") (A') (A') (A') (A") (A')
                 (A') (A') (A') (A") (A') (A') (A") (A') (A") (A')
                 (A') (A') (A') (A')
 The electronic state is 1-A'.
 Alpha  occ. eigenvalues --  -19.13606 -19.13601 -10.21603 -10.21601 -10.16724
 Alpha  occ. eigenvalues --   -1.02891  -1.02655  -0.78317  -0.66509  -0.59179
 Alpha  occ. eigenvalues --   -0.52185  -0.50889  -0.49684  -0.43899  -0.40267
 Alpha  occ. eigenvalues --   -0.39200  -0.35700  -0.32601  -0.31857  -0.26910
 Alpha  occ. eigenvalues --   -0.25918
 Alpha virt. eigenvalues --    0.08798   0.09513   0.11452   0.14526   0.16717
 Alpha virt. eigenvalues --    0.19715   0.19978   0.21356   0.21660   0.24401
 Alpha virt. eigenvalues --    0.28471   0.31622   0.50354   0.55477   0.57102
 Alpha virt. eigenvalues --    0.58733   0.62106   0.62553   0.66989   0.69400
 Alpha virt. eigenvalues --    0.76506   0.78490   0.80934   0.83395   0.86513
 Alpha virt. eigenvalues --    0.87789   0.91626   0.92658   0.94719   0.96018
 Alpha virt. eigenvalues --    0.97876   0.99508   1.00462   1.09496   1.11030
 Alpha virt. eigenvalues --    1.24991   1.31343   1.34310   1.37742   1.40670
 Alpha virt. eigenvalues --    1.49346   1.58233   1.59419   1.62105   1.64471
 Alpha virt. eigenvalues --    1.68103   1.69658   1.89033   1.90308   1.90427
 Alpha virt. eigenvalues --    1.96857   1.97923   1.99904   2.05586   2.09917
 Alpha virt. eigenvalues --    2.11966   2.12625   2.14442   2.23009   2.28450
 Alpha virt. eigenvalues --    2.32898   2.36015   2.37926   2.40197   2.44702
 Alpha virt. eigenvalues --    2.51671   2.59756   2.61671   2.63542   2.70308
 Alpha virt. eigenvalues --    2.72071   2.73444   2.77378   2.80803   2.86082
 Alpha virt. eigenvalues --    2.88108   2.92997   2.94383   2.95572   3.03948
 Alpha virt. eigenvalues --    3.07634   3.30039   3.33033   3.38569   3.40471
 Alpha virt. eigenvalues --    3.49283   3.54723   3.54930   3.62924   3.99716
 Alpha virt. eigenvalues --    4.00937   4.31633   4.50206   4.70531
     Molecular Orbital Coefficients:
                           1         2         3         4         5
                           O         O         O         O         O
     Eigenvalues --   -19.13606 -19.13601 -10.21603 -10.21601 -10.16724
   1 1   O  1S          0.00204   0.99275  -0.00005  -0.00014   0.00003
   2        2S          0.00003   0.02600  -0.00026  -0.00027   0.00010
   3        2PX         0.00000   0.00075  -0.00001  -0.00013  -0.00001
   4        2PY         0.00000  -0.00078  -0.00003  -0.00003  -0.00005
   5        2PZ         0.00000   0.00000   0.00000   0.00000   0.00000
   6        3S          0.00021   0.01202   0.00112   0.00248  -0.00103
   7        3PX         0.00004   0.00047   0.00052   0.00002  -0.00021
   8        3PY         0.00004   0.00028   0.00042   0.00042   0.00000
   9        3PZ         0.00000   0.00000   0.00000   0.00000   0.00000
  10        4XX        -0.00004  -0.00811   0.00001  -0.00081   0.00008
  11        4YY        -0.00003  -0.00785  -0.00019  -0.00031   0.00020
  12        4ZZ        -0.00002  -0.00805  -0.00022  -0.00003   0.00001
  13        4XY         0.00001  -0.00001   0.00009  -0.00019   0.00002
  14        4XZ         0.00000   0.00000   0.00000   0.00000   0.00000
  15        4YZ         0.00000   0.00000   0.00000   0.00000   0.00000
  16 2   H  1S          0.00000   0.00023   0.00003   0.00013   0.00003
  17        2S         -0.00008  -0.00124   0.00017   0.00020   0.00025
  18        3PX        -0.00002  -0.00007  -0.00004   0.00013   0.00005
  19        3PY        -0.00001  -0.00028   0.00004   0.00013  -0.00002
  20        3PZ         0.00000   0.00000   0.00000   0.00000   0.00000
  21 3   C  1S          0.00004   0.00002  -0.18749   0.97514  -0.00284
  22        2S          0.00018   0.00037  -0.00966   0.04893  -0.00048
  23        2PX         0.00001  -0.00034   0.00009  -0.00059   0.00003
  24        2PY        -0.00002  -0.00008   0.00000  -0.00021  -0.00010
  25        2PZ         0.00000   0.00000   0.00000   0.00000   0.00000
  26        3S         -0.00151  -0.00240   0.00353  -0.01752   0.00616
  27        3PX        -0.00011   0.00115   0.00131  -0.00032  -0.00020
  28        3PY        -0.00070  -0.00029   0.00058  -0.00192   0.00271
  29        3PZ         0.00000   0.00000   0.00000   0.00000   0.00000
  30        4XX         0.00005   0.00018   0.00152  -0.00854  -0.00014
  31        4YY         0.00000   0.00002   0.00165  -0.00888  -0.00037
  32        4ZZ         0.00005   0.00009   0.00156  -0.00870  -0.00013
  33        4XY        -0.00002   0.00000   0.00000   0.00010   0.00007
  34        4XZ         0.00000   0.00000   0.00000   0.00000   0.00000
  35        4YZ         0.00000   0.00000   0.00000   0.00000   0.00000
  36 4   C  1S         -0.00003  -0.00003   0.00203   0.00300   0.99299
  37        2S         -0.00006  -0.00006  -0.00015  -0.00022   0.05093
  38        2PX         0.00003  -0.00007  -0.00012  -0.00002   0.00002
  39        2PY         0.00009  -0.00005  -0.00007   0.00012  -0.00002
  40        2PZ         0.00000   0.00000   0.00000   0.00000   0.00000
  41        3S          0.00177   0.00176   0.00411   0.00607  -0.02171
  42        3PX         0.00039   0.00091   0.00255   0.00050  -0.00173
  43        3PY        -0.00083  -0.00009   0.00141  -0.00254   0.00122
  44        3PZ         0.00000   0.00000   0.00000   0.00000   0.00000
  45        4XX        -0.00004  -0.00004  -0.00030  -0.00026  -0.00901
  46        4YY        -0.00006  -0.00006  -0.00013  -0.00038  -0.00908
  47        4ZZ        -0.00005  -0.00005  -0.00016  -0.00023  -0.00875
  48        4XY        -0.00003  -0.00003  -0.00004   0.00002  -0.00012
  49        4XZ         0.00000   0.00000   0.00000   0.00000   0.00000
  50        4YZ         0.00000   0.00000   0.00000   0.00000   0.00000
  51 5   H  1S          0.00006   0.00000  -0.00005  -0.00002  -0.00016
  52        2S          0.00004  -0.00003  -0.00094   0.00282   0.00002
  53        3PX         0.00001   0.00005  -0.00009   0.00007  -0.00001
  54        3PY         0.00001   0.00001  -0.00005   0.00004   0.00007
  55        3PZ         0.00001   0.00007   0.00000   0.00009  -0.00004
  56 6   H  1S          0.00006   0.00000  -0.00005  -0.00002  -0.00016
  57        2S          0.00004  -0.00003  -0.00094   0.00282   0.00002
  58        3PX         0.00001   0.00005  -0.00009   0.00007  -0.00001
  59        3PY         0.00001   0.00001  -0.00005   0.00004   0.00007
  60        3PZ        -0.00001  -0.00007   0.00000  -0.00009   0.00004
  61 7   C  1S          0.00002   0.00004   0.97516   0.18737  -0.00284
  62        2S          0.00037   0.00018   0.04902   0.00917  -0.00048
  63        2PX        -0.00004   0.00002  -0.00001   0.00002   0.00011
  64        2PY         0.00035  -0.00001   0.00061   0.00015   0.00001
  65        2PZ         0.00000   0.00000   0.00000   0.00000   0.00000
  66        3S         -0.00241  -0.00150  -0.01758  -0.00322   0.00616
  67        3PX         0.00066   0.00062   0.00163   0.00053  -0.00262
  68        3PY        -0.00098   0.00034   0.00140  -0.00098  -0.00071
  69        3PZ         0.00000   0.00000   0.00000   0.00000   0.00000
  70        4XX         0.00003   0.00001  -0.00887  -0.00178  -0.00038
  71        4YY         0.00017   0.00003  -0.00848  -0.00174  -0.00013
  72        4ZZ         0.00009   0.00005  -0.00866  -0.00178  -0.00013
  73        4XY        -0.00006  -0.00004  -0.00006   0.00002  -0.00003
  74        4XZ         0.00000   0.00000   0.00000   0.00000   0.00000
  75        4YZ         0.00000   0.00000   0.00000   0.00000   0.00000
  76 8   H  1S          0.00002   0.00002  -0.00012  -0.00018   0.00000
  77        2S          0.00002   0.00002   0.00020   0.00030   0.00281
  78        3PX         0.00001  -0.00006   0.00005   0.00005  -0.00005
  79        3PY         0.00006  -0.00003  -0.00001  -0.00005   0.00004
  80        3PZ         0.00001   0.00001   0.00005   0.00007  -0.00022
  81 9   H  1S          0.00002   0.00002  -0.00012  -0.00018   0.00000
  82        2S          0.00002   0.00002   0.00020   0.00030   0.00281
  83        3PX         0.00001  -0.00006   0.00005   0.00005  -0.00005
  84        3PY         0.00006  -0.00003  -0.00001  -0.00005   0.00004
  85        3PZ        -0.00001  -0.00001  -0.00005  -0.00007   0.00022
  86 10  O  1S          0.99275  -0.00205  -0.00011  -0.00009   0.00003
  87        2S          0.02600  -0.00008  -0.00015  -0.00034   0.00010
  88        2PX         0.00099   0.00000  -0.00002   0.00002   0.00004
  89        2PY        -0.00045   0.00000   0.00011   0.00007   0.00003
  90        2PZ         0.00000   0.00000   0.00000   0.00000   0.00000
  91        3S          0.01202   0.00016   0.00189   0.00196  -0.00103
  92        3PX        -0.00011  -0.00002  -0.00028  -0.00035  -0.00007
  93        3PY        -0.00054  -0.00005   0.00009  -0.00064   0.00020
  94        3PZ         0.00000   0.00000   0.00000   0.00000   0.00000
  95        4XX        -0.00788  -0.00001  -0.00016  -0.00030   0.00018
  96        4YY        -0.00808   0.00000  -0.00081  -0.00028   0.00011
  97        4ZZ        -0.00805   0.00001   0.00005  -0.00022   0.00001
  98        4XY         0.00009   0.00000   0.00003   0.00001   0.00006
  99        4XZ         0.00000   0.00000   0.00000   0.00000   0.00000
 100        4YZ         0.00000   0.00000   0.00000   0.00000   0.00000
 101 11  H  1S          0.00000   0.00006   0.00000  -0.00005  -0.00016
 102        2S         -0.00003   0.00004   0.00297   0.00017   0.00002
 103        3PX         0.00001  -0.00001  -0.00002   0.00001  -0.00007
 104        3PY        -0.00006  -0.00001  -0.00011   0.00006  -0.00002
 105        3PZ         0.00007   0.00001   0.00009   0.00003  -0.00004
 106 12  H  1S          0.00000   0.00006   0.00000  -0.00005  -0.00016
 107        2S         -0.00003   0.00004   0.00297   0.00017   0.00002
 108        3PX         0.00001  -0.00001  -0.00002   0.00001  -0.00007
 109        3PY        -0.00006  -0.00001  -0.00011   0.00006  -0.00002
 110        3PZ        -0.00007  -0.00001  -0.00009  -0.00003   0.00004
 111 13  H  1S          0.00023   0.00000   0.00011   0.00008   0.00003
 112        2S         -0.00124  -0.00007   0.00012   0.00024   0.00025
 113        3PX         0.00024   0.00000  -0.00005  -0.00008   0.00004
 114        3PY         0.00016   0.00002  -0.00016  -0.00004  -0.00004
 115        3PZ         0.00000   0.00000   0.00000   0.00000   0.00000
                           6         7         8         9        10
                           O         O         O         O         O
     Eigenvalues --    -1.02891  -1.02655  -0.78317  -0.66509  -0.59179
   1 1   O  1S         -0.14041  -0.14492   0.04451   0.04445  -0.02559
   2        2S          0.30605   0.31594  -0.10031  -0.10013   0.05970
   3        2PX         0.06911   0.07035   0.03488   0.11932  -0.09761
   4        2PY        -0.03634  -0.03856   0.07868   0.14923  -0.01670
   5        2PZ         0.00000   0.00000   0.00000   0.00000   0.00000
   6        3S          0.29707   0.30859  -0.11394  -0.13055   0.07220
   7        3PX         0.03527   0.03694   0.01571   0.05582  -0.05749
   8        3PY        -0.00278  -0.00558   0.02845   0.06328  -0.00797
   9        3PZ         0.00000   0.00000   0.00000   0.00000   0.00000
  10        4XX         0.00507   0.00520   0.00637   0.01396  -0.01060
  11        4YY        -0.00167  -0.00165  -0.00163  -0.00594   0.00606
  12        4ZZ        -0.00741  -0.00757   0.00105   0.00073   0.00097
  13        4XY         0.00226   0.00193   0.00372   0.00483   0.00216
  14        4XZ         0.00000   0.00000   0.00000   0.00000   0.00000
  15        4YZ         0.00000   0.00000   0.00000   0.00000   0.00000
  16 2   H  1S          0.09827   0.10144  -0.06803  -0.11087   0.03133
  17        2S          0.00877   0.01056  -0.01661  -0.03916   0.01435
  18        3PX         0.00149   0.00169   0.00060   0.00316  -0.00298
  19        3PY         0.01624   0.01678  -0.00827  -0.01099   0.00299
  20        3PZ         0.00000   0.00000   0.00000   0.00000   0.00000
  21 3   C  1S         -0.05820  -0.05617  -0.09235  -0.12672   0.07927
  22        2S          0.11294   0.10522   0.18074   0.25613  -0.16633
  23        2PX        -0.07075  -0.07548   0.03952   0.00678  -0.07462
  24        2PY        -0.02425  -0.03135   0.09348   0.00933   0.12652
  25        2PZ         0.00000   0.00000   0.00000   0.00000   0.00000
  26        3S          0.01428   0.03013   0.13193   0.23165  -0.13863
  27        3PX         0.00622   0.01331   0.01182   0.01165  -0.03799
  28        3PY        -0.01343  -0.00010   0.01761   0.00685   0.04113
  29        3PZ         0.00000   0.00000   0.00000   0.00000   0.00000
  30        4XX         0.00991   0.01005  -0.01020  -0.00666   0.00286
  31        4YY        -0.00334  -0.00407   0.00543  -0.00851   0.01497
  32        4ZZ        -0.00870  -0.00919  -0.00577  -0.00568  -0.00174
  33        4XY         0.00893   0.00950  -0.00310  -0.00516  -0.00188
  34        4XZ         0.00000   0.00000   0.00000   0.00000   0.00000
  35        4YZ         0.00000   0.00000   0.00000   0.00000   0.00000
  36 4   C  1S         -0.02484  -0.00023  -0.15176  -0.00002  -0.11811
  37        2S          0.04073   0.00038   0.28701   0.00005   0.24098
  38        2PX         0.00909  -0.01842   0.04469  -0.08700  -0.11468
  39        2PY        -0.00607  -0.02623  -0.03158  -0.12304   0.08112
  40        2PZ         0.00000   0.00000   0.00000   0.00000   0.00000
  41        3S          0.05975   0.00054   0.22566   0.00002   0.21246
  42        3PX         0.01461  -0.00547   0.01085  -0.01456  -0.04172
  43        3PY        -0.01021  -0.00801  -0.00763  -0.02059   0.02959
  44        3PZ         0.00000   0.00000   0.00000   0.00000   0.00000
  45        4XX         0.00158  -0.00311  -0.00288  -0.01188  -0.01027
  46        4YY         0.00370   0.00316  -0.00229   0.01188  -0.01082
  47        4ZZ        -0.00285  -0.00003  -0.01012   0.00000   0.00232
  48        4XY         0.00357  -0.00124   0.00096  -0.00485  -0.00089
  49        4XZ         0.00000   0.00000   0.00000   0.00000   0.00000
  50        4YZ         0.00000   0.00000   0.00000   0.00000   0.00000
  51 5   H  1S          0.02253   0.02009   0.05583   0.09292  -0.10253
  52        2S          0.00157   0.00231   0.01104   0.02721  -0.04724
  53        3PX        -0.00221  -0.00256  -0.00201  -0.00390   0.00242
  54        3PY         0.00121   0.00090   0.00300   0.00273  -0.00132
  55        3PZ        -0.00259  -0.00263  -0.00446  -0.00683   0.00644
  56 6   H  1S          0.02253   0.02009   0.05583   0.09292  -0.10253
  57        2S          0.00157   0.00231   0.01104   0.02721  -0.04724
  58        3PX        -0.00221  -0.00256  -0.00201  -0.00390   0.00242
  59        3PY         0.00121   0.00090   0.00300   0.00273  -0.00132
  60        3PZ         0.00259   0.00263   0.00446   0.00683  -0.00644
  61 7   C  1S         -0.05921   0.05509  -0.09237   0.12671   0.07926
  62        2S          0.11485  -0.10313   0.18078  -0.25612  -0.16631
  63        2PX        -0.00064  -0.00441  -0.07497   0.00651  -0.14420
  64        2PY         0.07627  -0.08023  -0.06841   0.00946   0.02818
  65        2PZ         0.00000   0.00000   0.00000   0.00000   0.00000
  66        3S          0.01481  -0.02984   0.13195  -0.23164  -0.13871
  67        3PX         0.01483  -0.00427  -0.01266   0.00257  -0.05142
  68        3PY        -0.00163   0.01249  -0.01703   0.01327   0.02211
  69        3PZ         0.00000   0.00000   0.00000   0.00000   0.00000
  70        4XX        -0.00687   0.00755   0.00538   0.00550   0.01465
  71        4YY         0.01354  -0.01340  -0.01015   0.00967   0.00318
  72        4ZZ        -0.00887   0.00903  -0.00578   0.00568  -0.00174
  73        4XY         0.00218  -0.00222   0.00326   0.00469   0.00293
  74        4XZ         0.00000   0.00000   0.00000   0.00000   0.00000
  75        4YZ         0.00000   0.00000   0.00000   0.00000   0.00000
  76 8   H  1S          0.00994   0.00009   0.08508   0.00001   0.13527
  77        2S          0.00498   0.00004   0.01596   0.00001   0.06305
  78        3PX         0.00055  -0.00059   0.00460  -0.00150   0.00362
  79        3PY        -0.00038  -0.00084  -0.00325  -0.00212  -0.00256
  80        3PZ         0.00147   0.00001   0.00715   0.00000   0.00872
  81 9   H  1S          0.00994   0.00009   0.08508   0.00001   0.13527
  82        2S          0.00498   0.00004   0.01596   0.00001   0.06305
  83        3PX         0.00055  -0.00059   0.00460  -0.00150   0.00362
  84        3PY        -0.00038  -0.00084  -0.00325  -0.00212  -0.00256
  85        3PZ        -0.00147  -0.00001  -0.00715   0.00000  -0.00872
  86 10  O  1S         -0.14304   0.14233   0.04451  -0.04444  -0.02559
  87        2S          0.31178  -0.31030  -0.10032   0.10012   0.05970
  88        2PX         0.05838  -0.05874  -0.06257   0.10093  -0.01684
  89        2PY        -0.05401   0.05250  -0.05914   0.16227   0.09759
  90        2PZ         0.00000   0.00000   0.00000   0.00000   0.00000
  91        3S          0.30267  -0.30312  -0.11394   0.13052   0.07222
  92        3PX         0.01468  -0.01730  -0.02159   0.04107  -0.01168
  93        3PY        -0.03293   0.03237  -0.02430   0.07374   0.05686
  94        3PZ         0.00000   0.00000   0.00000   0.00000   0.00000
  95        4XX        -0.00218   0.00190  -0.00277   0.00636   0.00303
  96        4YY         0.00565  -0.00538   0.00751  -0.01438  -0.00757
  97        4ZZ        -0.00755   0.00744   0.00105  -0.00073   0.00097
  98        4XY        -0.00071   0.00097  -0.00001   0.00347   0.00773
  99        4XZ         0.00000   0.00000   0.00000   0.00000   0.00000
 100        4YZ         0.00000   0.00000   0.00000   0.00000   0.00000
 101 11  H  1S          0.02289  -0.01967   0.05584  -0.09292  -0.10253
 102        2S          0.00161  -0.00228   0.01104  -0.02721  -0.04724
 103        3PX        -0.00191   0.00167  -0.00350   0.00388   0.00205
 104        3PY         0.00172  -0.00208   0.00089  -0.00277  -0.00184
 105        3PZ        -0.00264   0.00258  -0.00446   0.00683   0.00644
 106 12  H  1S          0.02289  -0.01967   0.05584  -0.09292  -0.10253
 107        2S          0.00161  -0.00228   0.01104  -0.02721  -0.04724
 108        3PX        -0.00191   0.00167  -0.00350   0.00388   0.00205
 109        3PY         0.00172  -0.00208   0.00089  -0.00277  -0.00184
 110        3PZ         0.00264  -0.00258   0.00446  -0.00683  -0.00644
 111 13  H  1S          0.10011  -0.09962  -0.06805   0.11088   0.03130
 112        2S          0.00897  -0.01040  -0.01661   0.03917   0.01433
 113        3PX        -0.01509   0.01499   0.00800  -0.01141  -0.00381
 114        3PY        -0.00695   0.00706   0.00220  -0.00068   0.00181
 115        3PZ         0.00000   0.00000   0.00000   0.00000   0.00000
                          11        12        13        14        15
                           O         O         O         O         O
     Eigenvalues --    -0.52185  -0.50889  -0.49684  -0.43899  -0.40267
   1 1   O  1S         -0.01102  -0.03407   0.00000   0.00000  -0.04348
   2        2S          0.02966   0.07546   0.00000   0.00000   0.08867
   3        2PX         0.17089   0.03946   0.00000   0.00000  -0.21127
   4        2PY         0.29663   0.26872   0.00000   0.00000   0.15228
   5        2PZ         0.00000   0.00000   0.12298   0.20449   0.00000
   6        3S          0.03426   0.13618   0.00000   0.00000   0.19757
   7        3PX         0.07637   0.01117   0.00000   0.00000  -0.13219
   8        3PY         0.14595   0.13840   0.00000   0.00000   0.08871
   9        3PZ         0.00000   0.00000   0.07378   0.13136   0.00000
  10        4XX         0.01108  -0.00119   0.00000   0.00000  -0.01337
  11        4YY        -0.01234  -0.00872   0.00000   0.00000  -0.00449
  12        4ZZ         0.00147  -0.00012   0.00000   0.00000  -0.00050
  13        4XY         0.00737   0.01112   0.00000   0.00000   0.01290
  14        4XZ         0.00000   0.00000   0.00933   0.01363   0.00000
  15        4YZ         0.00000   0.00000  -0.00067  -0.00287   0.00000
  16 2   H  1S         -0.16564  -0.13104   0.00000   0.00000  -0.05902
  17        2S         -0.09337  -0.07434   0.00000   0.00000  -0.03232
  18        3PX         0.00501   0.00052   0.00000   0.00000  -0.00724
  19        3PY        -0.01019  -0.00708   0.00000   0.00000  -0.00143
  20        3PZ         0.00000   0.00000   0.00391   0.00660   0.00000
  21 3   C  1S         -0.00780   0.03446   0.00000   0.00000  -0.00113
  22        2S          0.02001  -0.06715   0.00000   0.00000  -0.00136
  23        2PX        -0.21114  -0.20432   0.00000   0.00000   0.05156
  24        2PY        -0.04627   0.10771   0.00000   0.00000   0.20409
  25        2PZ         0.00000   0.00000   0.25146   0.29898   0.00000
  26        3S          0.02755  -0.09573   0.00000   0.00000   0.05060
  27        3PX        -0.06920  -0.05995   0.00000   0.00000   0.02436
  28        3PY        -0.00485   0.04844   0.00000   0.00000   0.13174
  29        3PZ         0.00000   0.00000   0.08870   0.12638   0.00000
  30        4XX         0.01873   0.01746   0.00000   0.00000   0.00064
  31        4YY        -0.01184  -0.00260   0.00000   0.00000   0.00048
  32        4ZZ        -0.00862  -0.01047   0.00000   0.00000  -0.00381
  33        4XY         0.00091   0.00161   0.00000   0.00000   0.00058
  34        4XZ         0.00000   0.00000   0.00453   0.00316   0.00000
  35        4YZ         0.00000   0.00000  -0.00073  -0.01074   0.00000
  36 4   C  1S          0.03615   0.00003   0.00000   0.00000   0.01476
  37        2S         -0.06857  -0.00006   0.00000   0.00000  -0.01546
  38        2PX        -0.05846  -0.04400   0.00000   0.00000   0.25607
  39        2PY         0.04142  -0.06201   0.00000   0.00000  -0.18079
  40        2PZ         0.00000   0.00000   0.25510   0.00006   0.00000
  41        3S         -0.09968  -0.00008   0.00000   0.00000  -0.13837
  42        3PX        -0.02933  -0.02704   0.00000   0.00000   0.06764
  43        3PY         0.02082  -0.03818   0.00000   0.00000  -0.04778
  44        3PZ         0.00000   0.00000   0.10793   0.00002   0.00000
  45        4XX        -0.00036   0.00358   0.00000   0.00000   0.00504
  46        4YY         0.00445  -0.00358   0.00000   0.00000   0.00759
  47        4ZZ         0.00144   0.00000   0.00000   0.00000  -0.01331
  48        4XY         0.00782   0.00147   0.00000   0.00000   0.00422
  49        4XZ         0.00000   0.00000  -0.00144  -0.00724   0.00000
  50        4YZ         0.00000   0.00000   0.00102  -0.01023   0.00000
  51 5   H  1S         -0.03845  -0.10006   0.11153   0.13914  -0.02767
  52        2S         -0.02737  -0.05637   0.08191   0.10572  -0.02215
  53        3PX        -0.00191   0.00005  -0.00325  -0.00466   0.00119
  54        3PY        -0.00144  -0.00013   0.00330   0.00214   0.00301
  55        3PZ         0.00151   0.00514  -0.00115  -0.00154   0.00082
  56 6   H  1S         -0.03845  -0.10006  -0.11153  -0.13914  -0.02767
  57        2S         -0.02737  -0.05637  -0.08191  -0.10572  -0.02215
  58        3PX        -0.00191   0.00005   0.00325   0.00466   0.00119
  59        3PY        -0.00144  -0.00013  -0.00330  -0.00214   0.00301
  60        3PZ        -0.00151  -0.00514  -0.00115  -0.00154  -0.00082
  61 7   C  1S         -0.00769  -0.03447   0.00000   0.00000  -0.00117
  62        2S          0.01980   0.06719   0.00000   0.00000  -0.00128
  63        2PX        -0.02717   0.16957   0.00000   0.00000  -0.17549
  64        2PY         0.21491  -0.15612   0.00000   0.00000  -0.11713
  65        2PZ         0.00000   0.00000   0.25154  -0.29891   0.00000
  66        3S          0.02720   0.09578   0.00000   0.00000   0.05080
  67        3PX        -0.01863   0.06562   0.00000   0.00000  -0.11627
  68        3PY         0.06697  -0.04017   0.00000   0.00000  -0.06707
  69        3PZ         0.00000   0.00000   0.08876  -0.12635   0.00000
  70        4XX        -0.00895   0.00123   0.00000   0.00000   0.00021
  71        4YY         0.01587  -0.01606   0.00000   0.00000   0.00089
  72        4ZZ        -0.00864   0.01044   0.00000   0.00000  -0.00380
  73        4XY        -0.01040   0.00600   0.00000   0.00000   0.00038
  74        4XZ         0.00000   0.00000   0.00220  -0.01118   0.00000
  75        4YZ         0.00000   0.00000  -0.00402  -0.00061   0.00000
  76 8   H  1S         -0.00961   0.00001  -0.11364  -0.00003  -0.12897
  77        2S          0.00145   0.00001  -0.07376  -0.00002  -0.09606
  78        3PX        -0.00100  -0.00159  -0.00411   0.00132   0.00174
  79        3PY         0.00071  -0.00225   0.00290   0.00187  -0.00123
  80        3PZ        -0.00066   0.00000  -0.00138   0.00000  -0.00609
  81 9   H  1S         -0.00961   0.00001   0.11364   0.00003  -0.12897
  82        2S          0.00145   0.00001   0.07376   0.00002  -0.09606
  83        3PX        -0.00100  -0.00159   0.00411  -0.00132   0.00174
  84        3PY         0.00071  -0.00225  -0.00290  -0.00187  -0.00123
  85        3PZ         0.00066   0.00000  -0.00138   0.00000   0.00609
  86 10  O  1S         -0.01112   0.03405   0.00000   0.00000  -0.04352
  87        2S          0.02987  -0.07539   0.00000   0.00000   0.08872
  88        2PX        -0.22335   0.23966   0.00000   0.00000  -0.21424
  89        2PY        -0.26033   0.12606   0.00000   0.00000   0.14909
  90        2PZ         0.00000   0.00000   0.12306  -0.20452   0.00000
  91        3S          0.03466  -0.13613   0.00000   0.00000   0.19778
  92        3PX        -0.11249   0.12650   0.00000   0.00000  -0.12789
  93        3PY        -0.12081   0.05633   0.00000   0.00000   0.09545
  94        3PZ         0.00000   0.00000   0.07382  -0.13138   0.00000
  95        4XX        -0.01378   0.01390   0.00000   0.00000  -0.01251
  96        4YY         0.01250  -0.00399   0.00000   0.00000  -0.00539
  97        4ZZ         0.00147   0.00012   0.00000   0.00000  -0.00051
  98        4XY        -0.00275  -0.00593   0.00000   0.00000   0.01329
  99        4XZ         0.00000   0.00000   0.00374  -0.00724   0.00000
 100        4YZ         0.00000   0.00000  -0.00857   0.01189   0.00000
 101 11  H  1S         -0.03872   0.09994   0.11157  -0.13911  -0.02759
 102        2S         -0.02751   0.05628   0.08193  -0.10570  -0.02208
 103        3PX         0.00072  -0.00014  -0.00420   0.00357  -0.00244
 104        3PY         0.00228   0.00001   0.00197  -0.00368  -0.00213
 105        3PZ         0.00152  -0.00514  -0.00115   0.00154   0.00082
 106 12  H  1S         -0.03872   0.09994  -0.11157   0.13911  -0.02759
 107        2S         -0.02751   0.05628  -0.08193   0.10570  -0.02208
 108        3PX         0.00072  -0.00014   0.00420  -0.00357  -0.00244
 109        3PY         0.00228   0.00001  -0.00197   0.00368  -0.00213
 110        3PZ        -0.00152   0.00514  -0.00115   0.00154  -0.00082
 111 13  H  1S         -0.16598   0.13062   0.00000   0.00000  -0.05898
 112        2S         -0.09357   0.07410   0.00000   0.00000  -0.03225
 113        3PX         0.01129  -0.00682   0.00000   0.00000  -0.00108
 114        3PY        -0.00132  -0.00188   0.00000   0.00000   0.00732
 115        3PZ         0.00000   0.00000   0.00391  -0.00661   0.00000
                          16        17        18        19        20
                           O         O         O         O         O
     Eigenvalues --    -0.39200  -0.35700  -0.32601  -0.31857  -0.26910
   1 1   O  1S          0.01562   0.00000   0.03002  -0.04588   0.00000
   2        2S         -0.02350   0.00000  -0.05251   0.08807   0.00000
   3        2PX         0.31454   0.00000   0.24613  -0.19681   0.00000
   4        2PY         0.01270   0.00000  -0.15513   0.22728   0.00000
   5        2PZ         0.00000  -0.18105   0.00000   0.00000   0.39858
   6        3S         -0.07333   0.00000  -0.15588   0.24227   0.00000
   7        3PX         0.19496   0.00000   0.17387  -0.14037   0.00000
   8        3PY        -0.00496   0.00000  -0.10836   0.15006   0.00000
   9        3PZ         0.00000  -0.12703   0.00000   0.00000   0.30779
  10        4XX         0.01785   0.00000   0.01125  -0.00874   0.00000
  11        4YY        -0.00735   0.00000   0.01101  -0.01936   0.00000
  12        4ZZ         0.00040   0.00000  -0.00002  -0.00038   0.00000
  13        4XY        -0.01115   0.00000  -0.00668   0.00696   0.00000
  14        4XZ         0.00000  -0.01014   0.00000   0.00000   0.00886
  15        4YZ         0.00000   0.00491   0.00000   0.00000  -0.00880
  16 2   H  1S         -0.03097   0.00000   0.07588  -0.11873   0.00000
  17        2S         -0.03923   0.00000   0.04231  -0.09196   0.00000
  18        3PX         0.01052   0.00000   0.00634  -0.00504   0.00000
  19        3PY        -0.00125   0.00000   0.00122  -0.00176   0.00000
  20        3PZ         0.00000  -0.00613   0.00000   0.00000   0.01312
  21 3   C  1S          0.01999   0.00000  -0.00940   0.01496   0.00000
  22        2S         -0.04296   0.00000   0.03333  -0.03615   0.00000
  23        2PX        -0.14776   0.00000  -0.14767   0.13063   0.00000
  24        2PY        -0.24251   0.00000   0.15907  -0.19790   0.00000
  25        2PZ         0.00000  -0.14273   0.00000   0.00000  -0.13571
  26        3S         -0.05882   0.00000  -0.02432  -0.06442   0.00000
  27        3PX        -0.03776   0.00000  -0.05609   0.05762   0.00000
  28        3PY        -0.10852   0.00000   0.01984  -0.07931   0.00000
  29        3PZ         0.00000  -0.05764   0.00000   0.00000   0.01206
  30        4XX         0.01611   0.00000  -0.00180   0.00877   0.00000
  31        4YY        -0.00626   0.00000   0.01142  -0.01469   0.00000
  32        4ZZ        -0.00468   0.00000  -0.01280   0.00991   0.00000
  33        4XY         0.01678   0.00000   0.01801  -0.00595   0.00000
  34        4XZ         0.00000  -0.00224   0.00000   0.00000  -0.02561
  35        4YZ         0.00000   0.01838   0.00000   0.00000   0.00264
  36 4   C  1S          0.00000   0.00000  -0.03545   0.00008   0.00000
  37        2S         -0.00003   0.00000   0.06665  -0.00016   0.00000
  38        2PX         0.16142   0.00000   0.21643   0.17592   0.00000
  39        2PY         0.22890   0.00000  -0.15217   0.24970   0.00000
  40        2PZ         0.00000   0.36969   0.00000   0.00000   0.06285
  41        3S          0.00008   0.00000   0.23600  -0.00055   0.00000
  42        3PX         0.06728   0.00000   0.14738   0.05573   0.00000
  43        3PY         0.09537   0.00000  -0.10402   0.07951   0.00000
  44        3PZ         0.00000   0.17745   0.00000   0.00000  -0.07531
  45        4XX         0.01063   0.00000  -0.00050   0.00808   0.00000
  46        4YY        -0.01065   0.00000   0.00531  -0.00809   0.00000
  47        4ZZ         0.00001   0.00000  -0.01412   0.00003   0.00000
  48        4XY         0.00434   0.00000   0.00956   0.00328   0.00000
  49        4XZ         0.00000  -0.02036   0.00000   0.00000  -0.01052
  50        4YZ         0.00000   0.01440   0.00000   0.00000   0.00743
  51 5   H  1S         -0.01879  -0.08341  -0.08753   0.07576  -0.11258
  52        2S         -0.01564  -0.08949  -0.10819   0.08325  -0.16418
  53        3PX        -0.00174   0.00228  -0.00136   0.00041   0.00042
  54        3PY        -0.00388  -0.00005   0.00248  -0.00282  -0.00300
  55        3PZ         0.00075   0.00050   0.00369  -0.00360   0.00069
  56 6   H  1S         -0.01879   0.08341  -0.08753   0.07576   0.11258
  57        2S         -0.01564   0.08949  -0.10819   0.08325   0.16418
  58        3PX        -0.00174  -0.00228  -0.00136   0.00041  -0.00042
  59        3PY        -0.00388   0.00005   0.00248  -0.00282   0.00300
  60        3PZ        -0.00075   0.00050  -0.00369   0.00360   0.00069
  61 7   C  1S         -0.02000   0.00000  -0.00948  -0.01492   0.00000
  62        2S          0.04297   0.00000   0.03348   0.03600   0.00000
  63        2PX        -0.17896   0.00000  -0.20029  -0.22933   0.00000
  64        2PY        -0.21992   0.00000   0.08639   0.05680   0.00000
  65        2PZ         0.00000  -0.14267   0.00000   0.00000  -0.13636
  66        3S          0.05877   0.00000  -0.02392   0.06457   0.00000
  67        3PX        -0.08949   0.00000  -0.03791  -0.09389   0.00000
  68        3PY        -0.07166   0.00000   0.04636   0.02767   0.00000
  69        3PZ         0.00000  -0.05758   0.00000   0.00000   0.01191
  70        4XX         0.01291   0.00000   0.00019   0.00884   0.00000
  71        4YY        -0.02276   0.00000   0.00946  -0.00296   0.00000
  72        4ZZ         0.00469   0.00000  -0.01284  -0.00985   0.00000
  73        4XY        -0.00494   0.00000   0.01885   0.01306   0.00000
  74        4XZ         0.00000  -0.01807   0.00000   0.00000  -0.01106
  75        4YZ         0.00000  -0.00402   0.00000   0.00000   0.02335
  76 8   H  1S          0.00013  -0.21225  -0.08205   0.00015  -0.05793
  77        2S          0.00011  -0.18552  -0.11597   0.00023  -0.14283
  78        3PX         0.00311  -0.00459   0.00213   0.00324  -0.00180
  79        3PY         0.00440   0.00324  -0.00149   0.00459   0.00127
  80        3PZ         0.00001  -0.00142  -0.00293   0.00000  -0.00075
  81 9   H  1S          0.00013   0.21225  -0.08205   0.00015   0.05793
  82        2S          0.00011   0.18552  -0.11597   0.00023   0.14283
  83        3PX         0.00311   0.00459   0.00213   0.00324   0.00180
  84        3PY         0.00440  -0.00324  -0.00149   0.00459  -0.00127
  85        3PZ        -0.00001  -0.00142   0.00293   0.00000  -0.00075
  86 10  O  1S         -0.01554   0.00000   0.03021   0.04573   0.00000
  87        2S          0.02333   0.00000  -0.05287  -0.08780   0.00000
  88        2PX        -0.09253   0.00000   0.22946   0.27880   0.00000
  89        2PY         0.30052   0.00000  -0.18073  -0.10898   0.00000
  90        2PZ         0.00000  -0.18107   0.00000   0.00000   0.40014
  91        3S          0.07298   0.00000  -0.15690  -0.24154   0.00000
  92        3PX        -0.06948   0.00000   0.16092   0.18753   0.00000
  93        3PY         0.18200   0.00000  -0.12810  -0.08174   0.00000
  94        3PZ         0.00000  -0.12706   0.00000   0.00000   0.30902
  95        4XX        -0.00150   0.00000   0.01477   0.02190   0.00000
  96        4YY        -0.00897   0.00000   0.00762   0.00610   0.00000
  97        4ZZ        -0.00040   0.00000  -0.00002   0.00039   0.00000
  98        4XY         0.01779   0.00000  -0.00528  -0.00154   0.00000
  99        4XZ         0.00000  -0.00801   0.00000   0.00000   0.01129
 100        4YZ         0.00000   0.00793   0.00000   0.00000  -0.00543
 101 11  H  1S          0.01888  -0.08337  -0.08787  -0.07539  -0.11305
 102        2S          0.01572  -0.08948  -0.10856  -0.08278  -0.16471
 103        3PX        -0.00307   0.00081  -0.00280  -0.00279   0.00298
 104        3PY        -0.00293  -0.00213   0.00045  -0.00056   0.00060
 105        3PZ        -0.00075   0.00050   0.00370   0.00358   0.00069
 106 12  H  1S          0.01888   0.08337  -0.08787  -0.07539   0.11305
 107        2S          0.01572   0.08948  -0.10856  -0.08278   0.16471
 108        3PX        -0.00307  -0.00081  -0.00280  -0.00279  -0.00298
 109        3PY        -0.00293   0.00213   0.00045  -0.00056  -0.00060
 110        3PZ         0.00075   0.00050  -0.00370  -0.00358   0.00069
 111 13  H  1S          0.03105   0.00000   0.07639   0.11837   0.00000
 112        2S          0.03928   0.00000   0.04271   0.09175   0.00000
 113        3PX        -0.00468   0.00000   0.00097   0.00002   0.00000
 114        3PY         0.00949   0.00000  -0.00641  -0.00531   0.00000
 115        3PZ         0.00000  -0.00613   0.00000   0.00000   0.01318
                          21        22        23        24        25
                           O         V         V         V         V
     Eigenvalues --    -0.25918   0.08798   0.09513   0.11452   0.14526
   1 1   O  1S          0.00000   0.05919   0.05875   0.04190   0.00000
   2        2S          0.00000  -0.08606  -0.08897  -0.04776   0.00000
   3        2PX         0.00000  -0.04288  -0.03306  -0.12321   0.00000
   4        2PY         0.00000   0.12403   0.16774   0.08133   0.00000
   5        2PZ         0.41090   0.00000   0.00000   0.00000  -0.01607
   6        3S          0.00000  -0.71438  -0.68728  -0.54663   0.00000
   7        3PX         0.00000  -0.08441  -0.06277  -0.20977   0.00000
   8        3PY         0.00000   0.22169   0.30966   0.15818   0.00000
   9        3PZ         0.32225   0.00000   0.00000   0.00000  -0.10004
  10        4XX         0.00000   0.01549   0.01644   0.02105   0.00000
  11        4YY         0.00000   0.02025   0.01701   0.02023   0.00000
  12        4ZZ         0.00000   0.02717   0.02617   0.01760   0.00000
  13        4XY         0.00000   0.00772   0.00365   0.00799   0.00000
  14        4XZ         0.00893   0.00000   0.00000   0.00000   0.00346
  15        4YZ        -0.00968   0.00000   0.00000   0.00000   0.00409
  16 2   H  1S          0.00000   0.07839   0.07369   0.03875   0.00000
  17        2S          0.00000   0.77657   0.86825   0.43377   0.00000
  18        3PX         0.00000  -0.00015   0.00268  -0.00217   0.00000
  19        3PY         0.00000  -0.00488  -0.00489  -0.00487   0.00000
  20        3PZ         0.01361   0.00000   0.00000   0.00000  -0.00221
  21 3   C  1S          0.00000   0.02301   0.04349  -0.07138   0.00000
  22        2S          0.00000  -0.00374  -0.04799   0.11666   0.00000
  23        2PX         0.00000  -0.16976  -0.13574   0.01187   0.00000
  24        2PY         0.00000   0.08389  -0.05490  -0.08432   0.00000
  25        2PZ        -0.16176   0.00000   0.00000   0.00000   0.25227
  26        3S          0.00000  -0.62008  -0.76738   1.04792   0.00000
  27        3PX         0.00000  -0.48333  -0.28406   0.12772   0.00000
  28        3PY         0.00000   0.11378  -0.19172  -0.42238   0.00000
  29        3PZ        -0.03537   0.00000   0.00000   0.00000   0.61221
  30        4XX         0.00000  -0.00251   0.00269  -0.01310   0.00000
  31        4YY         0.00000   0.00245   0.00775   0.00651   0.00000
  32        4ZZ         0.00000   0.01368   0.00710  -0.00498   0.00000
  33        4XY         0.00000  -0.01083  -0.00791  -0.01552   0.00000
  34        4XZ        -0.02466   0.00000   0.00000   0.00000  -0.00231
  35        4YZ         0.00090   0.00000   0.00000   0.00000   0.01182
  36 4   C  1S          0.00000   0.02606   0.00009  -0.05993   0.00000
  37        2S          0.00000  -0.04594  -0.00014   0.07241   0.00000
  38        2PX         0.00000   0.03290  -0.01939  -0.08546   0.00000
  39        2PY         0.00000  -0.02318  -0.02763   0.06042   0.00000
  40        2PZ         0.00010   0.00000   0.00000   0.00000   0.24010
  41        3S          0.00000  -0.24692  -0.00112   1.15987   0.00000
  42        3PX         0.00000   0.24572  -0.21793  -0.38983   0.00000
  43        3PY         0.00000  -0.17251  -0.30999   0.27541   0.00000
  44        3PZ        -0.00015   0.00000   0.00000   0.00000   0.62598
  45        4XX         0.00000  -0.00339   0.01155  -0.00109   0.00000
  46        4YY         0.00000   0.00809  -0.01155   0.00522   0.00000
  47        4ZZ         0.00000   0.00049   0.00001  -0.01846   0.00000
  48        4XY         0.00000   0.01864   0.00476   0.01031   0.00000
  49        4XZ         0.00351   0.00000   0.00000   0.00000   0.01559
  50        4YZ         0.00500   0.00000   0.00000   0.00000  -0.01102
  51 5   H  1S         -0.11973   0.01600   0.00260   0.00008  -0.03321
  52        2S         -0.13637   0.50928   0.37458  -0.63870  -0.81472
  53        3PX         0.00125  -0.00331  -0.00267  -0.00331  -0.00236
  54        3PY        -0.00231  -0.00033  -0.00469  -0.00744   0.00262
  55        3PZ         0.00092   0.00430   0.00181  -0.00270  -0.00023
  56 6   H  1S          0.11973   0.01600   0.00260   0.00008   0.03321
  57        2S          0.13637   0.50928   0.37458  -0.63870   0.81472
  58        3PX        -0.00125  -0.00331  -0.00267  -0.00331   0.00236
  59        3PY         0.00231  -0.00033  -0.00469  -0.00744  -0.00262
  60        3PZ         0.00092  -0.00430  -0.00181   0.00270  -0.00023
  61 7   C  1S          0.00000   0.02323  -0.04329  -0.07144   0.00000
  62        2S          0.00000  -0.00396   0.04785   0.11675   0.00000
  63        2PX         0.00000  -0.13564  -0.00730   0.08347   0.00000
  64        2PY         0.00000   0.13282  -0.14556   0.01675   0.00000
  65        2PZ         0.16127   0.00000   0.00000   0.00000   0.25230
  66        3S          0.00000  -0.62392   0.76289   1.04899   0.00000
  67        3PX         0.00000  -0.26783  -0.08801   0.44084   0.00000
  68        3PY         0.00000   0.41939  -0.32944   0.02001   0.00000
  69        3PZ         0.03545   0.00000   0.00000   0.00000   0.61219
  70        4XX         0.00000   0.00786  -0.01146   0.01277   0.00000
  71        4YY         0.00000  -0.00786   0.00103  -0.01936   0.00000
  72        4ZZ         0.00000   0.01371  -0.00702  -0.00499   0.00000
  73        4XY         0.00000  -0.00665   0.00428  -0.00495   0.00000
  74        4XZ         0.00903   0.00000   0.00000   0.00000  -0.01191
  75        4YZ        -0.02286   0.00000   0.00000   0.00000  -0.00175
  76 8   H  1S         -0.00010  -0.03559  -0.00006  -0.03998   0.07256
  77        2S         -0.00026   0.18590   0.00077  -0.73500   0.94292
  78        3PX         0.00064   0.00211  -0.00266  -0.00220  -0.00292
[...]
 101 11  H  1S         -0.00002   0.00000   0.00004   0.00001   0.00002
 102        2S         -0.00029  -0.00003   0.00005  -0.00005   0.00009
 103        3PX         0.00000   0.00000   0.00000   0.00000   0.00000
 104        3PY         0.00000   0.00000   0.00000   0.00000   0.00000
 105        3PZ         0.00000   0.00000   0.00000   0.00000   0.00000
 106 12  H  1S         -0.00002   0.00000   0.00004   0.00001   0.00002
 107        2S         -0.00029  -0.00003   0.00005  -0.00005   0.00009
 108        3PX         0.00000   0.00000   0.00000   0.00000   0.00000
 109        3PY         0.00000   0.00000   0.00000   0.00000   0.00000
 110        3PZ         0.00000   0.00000   0.00000   0.00000   0.00000
 111 13  H  1S          0.00134  -0.00053   0.00393   0.00000   0.00000
 112        2S          0.00108  -0.00013   0.00048   0.00000   0.00000
 113        3PX         0.00002  -0.00003  -0.00001   0.00000   0.00000
 114        3PY         0.00002  -0.00006   0.00008   0.00000   0.00000
 115        3PZ         0.00000   0.00000   0.00000   0.00022   0.00002
                         101       102       103       104       105
 101 11  H  1S          0.22382
 102        2S          0.12706   0.19422
 103        3PX         0.00000   0.00000   0.00025
 104        3PY         0.00000   0.00000   0.00000   0.00010
 105        3PZ         0.00000   0.00000   0.00000   0.00000   0.00035
 106 12  H  1S         -0.00063  -0.01052   0.00000   0.00000   0.00009
 107        2S         -0.01052  -0.03711   0.00000   0.00000   0.00020
 108        3PX         0.00000   0.00000   0.00000   0.00000   0.00000
 109        3PY         0.00000   0.00000   0.00000   0.00000   0.00000
 110        3PZ         0.00009   0.00020   0.00000   0.00000   0.00001
 111 13  H  1S         -0.00002  -0.00090   0.00000   0.00000   0.00000
 112        2S         -0.00036  -0.00243   0.00000  -0.00003  -0.00001
 113        3PX         0.00000  -0.00003   0.00000   0.00000   0.00000
 114        3PY         0.00000  -0.00004   0.00000   0.00000   0.00000
 115        3PZ         0.00000  -0.00007   0.00000   0.00000   0.00000
                         106       107       108       109       110
 106 12  H  1S          0.22382
 107        2S          0.12706   0.19422
 108        3PX         0.00000   0.00000   0.00025
 109        3PY         0.00000   0.00000   0.00000   0.00010
 110        3PZ         0.00000   0.00000   0.00000   0.00000   0.00035
 111 13  H  1S         -0.00002  -0.00090   0.00000   0.00000   0.00000
 112        2S         -0.00036  -0.00243   0.00000  -0.00003  -0.00001
 113        3PX         0.00000  -0.00003   0.00000   0.00000   0.00000
 114        3PY         0.00000  -0.00004   0.00000   0.00000   0.00000
 115        3PZ         0.00000  -0.00007   0.00000   0.00000   0.00000
                         111       112       113       114       115
 111 13  H  1S          0.20854
 112        2S          0.06840   0.06300
 113        3PX         0.00000   0.00000   0.00098
 114        3PY         0.00000   0.00000   0.00000   0.00128
 115        3PZ         0.00000   0.00000   0.00000   0.00000   0.00087
     Gross orbital populations:
                           1
   1 1   O  1S          1.99248
   2        2S          0.89096
   3        2PX         0.95347
   4        2PY         0.81147
   5        2PZ         1.15571
   6        3S          0.99284
   7        3PX         0.59728
   8        3PY         0.41341
   9        3PZ         0.77108
  10        4XX        -0.00754
  11        4YY         0.00459
  12        4ZZ        -0.01433
  13        4XY         0.01130
  14        4XZ         0.00276
  15        4YZ         0.00132
  16 2   H  1S          0.49274
  17        2S          0.14108
  18        3PX         0.01211
  19        3PY         0.01630
  20        3PZ         0.01036
  21 3   C  1S          1.99202
  22        2S          0.69563
  23        2PX         0.67201
  24        2PY         0.62477
  25        2PZ         0.73905
  26        3S          0.50949
  27        3PX         0.21939
  28        3PY         0.17257
  29        3PZ         0.29516
  30        4XX        -0.00825
  31        4YY         0.00076
  32        4ZZ        -0.01023
  33        4XY         0.01750
  34        4XZ         0.01798
  35        4YZ         0.00736
  36 4   C  1S          1.99215
  37        2S          0.68670
  38        2PX         0.69556
  39        2PY         0.69978
  40        2PZ         0.72133
  41        3S          0.59386
  42        3PX         0.27564
  43        3PY         0.19191
  44        3PZ         0.33959
  45        4XX        -0.01116
  46        4YY        -0.00409
  47        4ZZ        -0.00909
  48        4XY         0.00928
  49        4XZ         0.01266
  50        4YZ         0.00334
  51 5   H  1S          0.54108
  52        2S          0.35498
  53        3PX         0.00400
  54        3PY         0.00164
  55        3PZ         0.00566
  56 6   H  1S          0.54108
  57        2S          0.35498
  58        3PX         0.00400
  59        3PY         0.00164
  60        3PZ         0.00566
  61 7   C  1S          1.99202
  62        2S          0.69563
  63        2PX         0.67201
  64        2PY         0.62477
  65        2PZ         0.73905
  66        3S          0.50949
  67        3PX         0.21939
  68        3PY         0.17257
  69        3PZ         0.29516
  70        4XX        -0.00825
  71        4YY         0.00076
  72        4ZZ        -0.01023
  73        4XY         0.01750
  74        4XZ         0.01798
  75        4YZ         0.00736
  76 8   H  1S          0.53230
  77        2S          0.34784
  78        3PX         0.00403
  79        3PY         0.00226
  80        3PZ         0.00553
  81 9   H  1S          0.53230
  82        2S          0.34784
  83        3PX         0.00403
  84        3PY         0.00226
  85        3PZ         0.00553
  86 10  O  1S          1.99248
  87        2S          0.89096
  88        2PX         0.95347
  89        2PY         0.81147
  90        2PZ         1.15571
  91        3S          0.99284
  92        3PX         0.59728
  93        3PY         0.41341
  94        3PZ         0.77108
  95        4XX        -0.00754
  96        4YY         0.00459
  97        4ZZ        -0.01433
  98        4XY         0.01130
  99        4XZ         0.00276
 100        4YZ         0.00132
 101 11  H  1S          0.54108
 102        2S          0.35498
 103        3PX         0.00400
 104        3PY         0.00164
 105        3PZ         0.00566
 106 12  H  1S          0.54108
 107        2S          0.35498
 108        3PX         0.00400
 109        3PY         0.00164
 110        3PZ         0.00566
 111 13  H  1S          0.49274
 112        2S          0.14108
 113        3PX         0.01211
 114        3PY         0.01630
 115        3PZ         0.01036
          Condensed to atoms (all electrons):
              1          2          3          4          5          6
     1  O    8.166290   0.286325   0.238502  -0.047181  -0.037773  -0.037773
     2  H    0.286325   0.411463  -0.022686   0.005629  -0.003891  -0.003891
     3  C    0.238502  -0.022686   4.724604   0.348390   0.375358   0.375358
     4  C   -0.047181   0.005629   0.348390   5.013723  -0.041995  -0.041995
     5  H   -0.037773  -0.003891   0.375358  -0.041995   0.672866  -0.058181
     6  H   -0.037773  -0.003891   0.375358  -0.041995  -0.058181   0.672866
     7  C    0.002199  -0.000261  -0.029822   0.348390  -0.001262  -0.001262
     8  H    0.003164  -0.000057  -0.031950   0.369022   0.006773  -0.008813
     9  H    0.003164  -0.000057  -0.031950   0.369022  -0.008813   0.006773
    10  O   -0.000008   0.000001   0.002199  -0.047181  -0.000049  -0.000049
    11  H   -0.000049   0.000007  -0.001262  -0.041995   0.005204  -0.000894
    12  H   -0.000049   0.000007  -0.001262  -0.041995  -0.000894   0.005204
    13  H    0.000001   0.000000  -0.000261   0.005629   0.000007   0.000007
              7          8          9         10         11         12
     1  O    0.002199   0.003164   0.003164  -0.000008  -0.000049  -0.000049
     2  H   -0.000261  -0.000057  -0.000057   0.000001   0.000007   0.000007
     3  C   -0.029822  -0.031950  -0.031950   0.002199  -0.001262  -0.001262
     4  C    0.348390   0.369022   0.369022  -0.047181  -0.041995  -0.041995
     5  H   -0.001262   0.006773  -0.008813  -0.000049   0.005204  -0.000894
     6  H   -0.001262  -0.008813   0.006773  -0.000049  -0.000894   0.005204
     7  C    4.724603  -0.031950  -0.031950   0.238502   0.375358   0.375358
     8  H   -0.031950   0.626120  -0.041423   0.003164   0.006773  -0.008813
     9  H   -0.031950  -0.041423   0.626120   0.003164  -0.008813   0.006773
    10  O    0.238502   0.003164   0.003164   8.166290  -0.037773  -0.037773
    11  H    0.375358   0.006773  -0.008813  -0.037773   0.672866  -0.058181
    12  H    0.375358  -0.008813   0.006773  -0.037773  -0.058181   0.672866
    13  H   -0.022686  -0.000057  -0.000057   0.286325  -0.003891  -0.003891
             13
     1  O    0.000001
     2  H    0.000000
     3  C   -0.000261
     4  C    0.005629
     5  H    0.000007
     6  H    0.000007
     7  C   -0.022686
     8  H   -0.000057
     9  H   -0.000057
    10  O    0.286325
    11  H   -0.003891
    12  H   -0.003891
    13  H    0.411463
 Mulliken atomic charges:
              1
     1  O   -0.576813
     2  H    0.327413
     3  C    0.054784
     4  C   -0.197463
     5  H    0.092651
     6  H    0.092651
     7  C    0.054784
     8  H    0.108047
     9  H    0.108047
    10  O   -0.576813
    11  H    0.092650
    12  H    0.092650
    13  H    0.327413
 Sum of Mulliken atomic charges =   0.00000
 Mulliken charges with hydrogens summed into heavy atoms:
              1
     1  O   -0.249400
     3  C    0.240085
     4  C    0.018631
     7  C    0.240085
    10  O   -0.249400
 Sum of Mulliken charges with hydrogens summed into heavy atoms =   0.00000
 Electronic spatial extent (au):  <R**2>=            620.4060
 Charge=              0.0000 electrons
 Dipole moment (field-independent basis, Debye):
    X=              3.6819    Y=              0.0000    Z=              0.0000  Tot=              3.6819
 Quadrupole moment (field-independent basis, Debye-Ang):
   XX=            -32.4218   YY=            -23.7137   ZZ=            -31.5129
   XY=              0.0000   XZ=              0.0000   YZ=              0.0000
 Traceless Quadrupole moment (field-independent basis, Debye-Ang):
   XX=             -3.2056   YY=              5.5024   ZZ=             -2.2968
   XY=              0.0000   XZ=              0.0000   YZ=              0.0000
 Octapole moment (field-independent basis, Debye-Ang**2):
  XXX=             -0.9132  YYY=              0.0000  ZZZ=              0.0000  XYY=             22.1490
  XXY=              0.0000  XXZ=              0.0000  XZZ=              0.0395  YZZ=              0.0000
  YYZ=              0.0000  XYZ=              0.0000
 Hexadecapole moment (field-independent basis, Debye-Ang**3):
 XXXX=            -93.2372 YYYY=           -378.7679 ZZZZ=            -49.6614 XXXY=              0.0000
 XXXZ=              0.0000 YYYX=              0.0000 YYYZ=              0.0000 ZZZX=              0.0000
 ZZZY=              0.0000 XXYY=           -119.9671 XXZZ=            -22.2206 YYZZ=           -109.9607
 XXYZ=              0.0000 YYXZ=              0.0000 ZZXY=              0.0000
 N-N= 1.845504240159D+02 E-N=-9.999865019528D+02  KE= 2.671777935817D+02
 Symmetry A'   KE= 2.519125385032D+02
 Symmetry A"   KE= 1.526525507849D+01
 Orbital energies and kinetic energies (alpha):
                                 1                 2
   1         O               -19.142484         29.029192
   2         O               -19.142484         29.029500
   3         O               -10.229305         15.888374
   4         O               -10.229299         15.887238
   5         O               -10.179472         15.884133
   6         O                -1.013471          2.495155
   7         O                -1.011395          2.528757
   8         O                -0.773554          1.521446
   9         O                -0.660850          1.726940
  10         O                -0.586167          1.335161
  11         O                -0.506941          1.825940
  12         O                -0.502230          1.547952
  13         O                -0.482447          0.951436
  14         O                -0.427052          1.216286
  15         O                -0.397819          1.681887
  16         O                -0.386212          1.906534
  17         O                -0.348766          1.259360
  18         O                -0.331240          1.708932
  19         O                -0.327142          1.959128
  20         O                -0.271456          2.045957
  21         O                -0.263681          2.159589
  22         V                 0.084476          1.211937
  23         V                 0.087491          1.201618
  24         V                 0.103240          1.219271
  25         V                 0.138220          0.900979
  26         V                 0.157450          1.040710
  27         V                 0.184025          1.584612
  28         V                 0.184067          1.218084
  29         V                 0.197805          1.058987
  30         V                 0.207974          1.071103
  31         V                 0.227503          1.840172
  32         V                 0.264145          2.082567
  33         V                 0.283011          2.077626
  34         V                 0.510000          1.840596
  35         V                 0.555542          2.398740
  36         V                 0.555957          1.808610
  37         V                 0.563479          1.661975
  38         V                 0.614374          2.169235
  39         V                 0.625598          1.963442
  40         V                 0.661793          2.614685
  41         V                 0.689881          2.593587
  42         V                 0.752111          2.559836
  43         V                 0.772392          2.618704
  44         V                 0.800773          2.800989
  45         V                 0.820681          2.517157
  46         V                 0.840926          2.470372
  47         V                 0.860462          2.465161
  48         V                 0.896070          2.548825
  49         V                 0.911840          2.749300
  50         V                 0.919492          2.659049
  51         V                 0.948562          2.383868
  52         V                 0.972502          2.872830
  53         V                 0.991439          3.253529
  54         V                 0.996260          2.835391
  55         V                 1.094589          2.633120
  56         V                 1.100181          2.644656
  57         V                 1.238372          2.749642
  58         V                 1.304496          2.613950
  59         V                 1.314431          2.372212
  60         V                 1.371847          2.407783
  61         V                 1.390511          2.608152
  62         V                 1.474618          2.561725
  63         V                 1.577249          2.573561
  64         V                 1.588609          2.707105
  65         V                 1.591139          2.570293
  66         V                 1.639583          2.641468
  67         V                 1.675741          2.823786
  68         V                 1.689714          2.658150
  69         V                 1.855511          3.250102
  70         V                 1.856954          3.055300
  71         V                 1.884118          3.140250
  72         V                 1.933102          2.989343
  73         V                 1.948386          2.991514
  74         V                 1.949145          3.093164
  75         V                 1.975742          3.448523
  76         V                 2.046725          3.677454
  77         V                 2.064824          3.169757
  78         V                 2.097491          3.162499
  79         V                 2.119123          3.268976
  80         V                 2.192852          3.433371
  81         V                 2.252767          3.074155
  82         V                 2.298004          3.134671
  83         V                 2.328286          3.548753
  84         V                 2.361575          3.646784
  85         V                 2.363593          3.640917
  86         V                 2.410006          3.371369
  87         V                 2.498246          3.733270
  88         V                 2.562458          3.630257
  89         V                 2.581136          3.587703
  90         V                 2.624193          3.882165
  91         V                 2.668796          3.599536
  92         V                 2.669583          3.619886
  93         V                 2.691462          3.777983
  94         V                 2.730348          4.018419
  95         V                 2.758648          3.718270
  96         V                 2.774036          3.916458
  97         V                 2.826315          4.166096
  98         V                 2.873256          4.007190
  99         V                 2.881639          4.144070
 100         V                 2.897780          4.332897
 101         V                 2.973968          4.185649
 102         V                 3.015017          4.343173
 103         V                 3.230592          4.814823
 104         V                 3.263743          4.964809
 105         V                 3.333528          4.904217
 106         V                 3.347831          5.344392
 107         V                 3.445028          6.364837
 108         V                 3.481446          5.057686
 109         V                 3.485074          6.053100
 110         V                 3.566283          5.196224
 111         V                 3.929168          9.422359
 112         V                 3.944198          9.454846
 113         V                 4.291967         10.088237
 114         V                 4.485877         10.111194
 115         V                 4.673387         10.367587
 Total kinetic energy from orbitals= 2.671777935817D+02
 No NMR shielding tensors so no spin-rotation constants.
 Leave Link  601 at Mon Mar 14 13:46:19 2022, MaxMem=  536870912 cpu:       1.1
 (Enter /opt/gridunesp/dist/gaussian/g09/l9999.exe)

 Test job not archived.
 1\1\GINC-NODE025\FOpt\RB3LYP\6-31G(d,p)\C3H8O2\RHEINHEIMER\14-Mar-2022
 \0\\#P B3LYP/6-31G(d,p) # Opt=tight SCRF=(Solvent=Water) # Gfinput IOP
 (6/7=3) Pop=full Density Test # Units(Ang,Deg)\\peg-2.xyz\\0,1\O,-0.08
 02122087,0.,-0.0145618871\H,-0.1018873403,0.,0.9516103521\C,1.29047965
 84,0.,-0.4136564151\C,1.3347006856,0.,-1.9362223394\H,1.8138736568,0.8
 861060778,-0.0223279814\H,1.8138736568,-0.8861060778,-0.0223279814\C,2
 .7554524881,0.,-2.485427717\H,0.8036316454,-0.8826888618,-2.3117473033
 \H,0.8036316454,0.8826888618,-2.3117473033\O,2.6748337147,0.,-3.910760
 4484\H,3.2988628729,0.8861060753,-2.1224065196\H,3.2988628729,-0.88610
 60753,-2.1224065196\H,3.5785266514,0.,-4.2532479384\\Version=EM64L-G09
 RevA.02\State=1-A'\HF=-269.5777853\RMSD=5.555e-09\RMSF=2.745e-07\Dipol
 e=1.1827621,0.,0.8363444\Quadrupole=-0.2252134,-1.7076104,1.9328238,0.
 ,-3.0519812,0.\PG=CS [SG(C3H2O2),X(H6)]\\@


 QUHEN THE CAUSS IS TAKEN AWAY THE EFFECT WANISHETH.
 -- PROVERBS AND REASONS OF THE YEAR 1585
           AS REPRINTED IN PAISLEY MAGAZINE 1828.
 Job cpu time:  0 days  0 hours  5 minutes 47.3 seconds.
 File lengths (MBytes):  RWF=    106 Int=      0 D2E=      0 Chk=      4 Scr=      2
 Normal termination of Gaussian 09 at Mon Mar 14 13:46:19 2022.
