 Entering Gaussian System, Link 0=g09
 Input=peg-4_opt_g09.com
 Output=peg-4_opt_g09.log
 Initial command:
 /opt/gridunesp/dist/gaussian/g09/l1.exe /store/rheinheimer/2838052/Gau-766.inp -scrdir=/store/rheinheimer/2838052/
 Entering Link 1 = /opt/gridunesp/dist/gaussian/g09/l1.exe PID=       768.
  
 Copyright (c) 1988,1990,1992,1993,1995,1998,2003,2009, Gaussian, Inc.
                  All Rights Reserved.
  
 This is part of the Gaussian(R) 09 program.  It is based on
 the Gaussian(R) 03 system (copyright 2003, Gaussian, Inc.),
 the Gaussian(R) 98 system (copyright 1998, Gaussian, Inc.),
 the Gaussian(R) 94 system (copyright 1995, Gaussian, Inc.),
 the Gaussian 92(TM) system (copyright 1992, Gaussian, Inc.),
 the Gaussian 90(TM) system (copyright 1990, Gaussian, Inc.),
 the Gaussian 88(TM) system (copyright 1988, Gaussian, Inc.),
 the Gaussian 86(TM) system (copyright 1986, Carnegie Mellon
 University), and the Gaussian 82(TM) system (copyright 1983,
 Carnegie Mellon University). Gaussian is a federally registered
 trademark of Gaussian, Inc.
  
 This software contains proprietary and confidential information,
 including trade secrets, belonging to Gaussian, Inc.
  
 This software is provided under written license and may be
 used, copied, transmitted, or stored only in accord with that
 written license.
  
 The following legend is applicable only to US Government
 contracts under FAR:
  
                    RESTRICTED RIGHTS LEGEND
  
 Use, reproduction and disclosure by the US Government is
 subject to restrictions as set forth in subparagraphs (a)
 and (c) of the Commercial Computer Software - Restricted
 Rights clause in FAR 52.227-19.
  
 Gaussian, Inc.
 340 Quinnipiac St., Bldg. 40, Wallingford CT 06492
  
  
 ---------------------------------------------------------------
 Warning -- This program may not be used in any manner that
 competes with the business of Gaussian, Inc. or will provide
 assistance to any competitor of Gaussian, Inc.  The licensee
 of this program is prohibited from giving any competitor of
 Gaussian, Inc. access to this program.  By using this program,
 the user acknowledges that Gaussian, Inc. is engaged in the
 business of creating and licensing software in the field of
 computational chemistry and represents and warrants to the
 licensee that it is not a competitor of Gaussian, Inc. and that
 it will not use this program in any manner prohibited above.
 ---------------------------------------------------------------
  

 Cite this work as:
 Gaussian 09, Revision A.02,
 M. J. Frisch, G. W. Trucks, H. B. Schlegel, G. E. Scuseria, 
 M. A. Robb, J. R. Cheeseman, G. Scalmani, V. Barone, B. Mennucci, 
 G. A. Petersson, H. Nakatsuji, M. Caricato, X. Li, H. P. Hratchian, 
 A. F. Izmaylov, J. Bloino, G. Zheng, J. L. Sonnenberg, M. Hada, 
 M. Ehara, K. Toyota, R. Fukuda, J. Hasegawa, M. Ishida, T. Nakajima, 
 Y. Honda, O. Kitao, H. Nakai, T. Vreven, J. A. Montgomery, Jr., 
 J. E. Peralta, F. Ogliaro, M. Bearpark, J. J. Heyd, E. Brothers, 
 K. N. Kudin, V. N. Staroverov, R. Kobayashi, J. Normand, 
 K. Raghavachari, A. Rendell, J. C. Burant, S. S. Iyengar, J. Tomasi, 
 M. Cossi, N. Rega, J. M. Millam, M. Klene, J. E. Knox, J. B. Cross, 
 V. Bakken, C. Adamo, J. Jaramillo, R. Gomperts, R. E. Stratmann, 
 O. Yazyev, A. J. Austin, R. Cammi, C. Pomelli, J. W. Ochterski, 
 R. L. Martin, K. Morokuma, V. G. Zakrzewski, G. A. Voth, 
 P. Salvador, J. J. Dannenberg, S. Dapprich, A. D. Daniels, 
 O. Farkas, J. B. Foresman, J. V. Ortiz, J. Cioslowski, 
 and D. J. Fox, Gaussian, Inc., Wallingford CT, 2009.
 
 ******************************************
 Gaussian 09:  EM64L-G09RevA.02 11-Jun-2009
                14-Mar-2022 
 ******************************************
 %nproc=8
 Will use up to    8 processors via shared memory.
 %Mem=4GB
 ----------------------------------------------------------------------
 #P B3LYP/6-31G(d,p) # Opt=tight SCRF=(Solvent=Water) # Gfinput IOP(6/7
 =3) Pop=full Density Test # Units(Ang,Deg)
 ----------------------------------------------------------------------
 1/7=10,14=-1,18=20,19=15,26=3,38=1/1,3;
 2/9=110,12=2,17=6,18=5,40=1/2;
 3/5=1,6=6,7=101,11=2,16=1,24=10,25=1,30=1,70=2201,71=1,72=1,74=-5/1,2,3;
 4//1;
 5/5=2,38=5,53=1/2;
 6/7=3,22=-1,28=1/1;
 7//1,2,3,16;
 1/7=10,14=-1,18=20,19=15/3(2);
 2/9=110/2;
 99//99;
 2/9=110/2;
 3/5=1,6=6,7=101,11=2,16=1,25=1,30=1,70=2205,71=1,72=1,74=-5/1,2,3;
 4/5=5,16=3/1;
 5/5=2,38=5,53=1/2;
 7//1,2,3,16;
 1/7=10,14=-1,18=20,19=15/3(-5);
 2/9=110/2;
 6/7=3,19=2,22=-1,28=1/1;
 99/9=1/99;
 Leave Link    1 at Mon Mar 14 13:47:19 2022, MaxMem=  536870912 cpu:       0.4
 (Enter /opt/gridunesp/dist/gaussian/g09/l101.exe)
 ---------
 peg-4.xyz
 ---------
 Symbolic Z-matrix:
 Charge =  0 Multiplicity = 1
 O                     0.        0.        0. 
 H                     0.        0.        0.947 
 C                     1.30108   0.       -0.45999 
 C                     1.30108   0.       -1.95999 
 H                     1.80548   0.87365  -0.10333 
 H                     1.80548  -0.87365  -0.10333 
 C                     2.7153    0.       -2.45999 
 H                     0.79668  -0.87365  -2.31666 
 H                     0.79668   0.87365  -2.31666 
 C                     2.7153    0.       -3.95999 
 H                     3.2197    0.87365  -2.10332 
 H                     3.2197   -0.87365  -2.10332 
 C                     4.12952   0.       -4.45998 
 H                     2.2109   -0.87365  -4.31666 
 H                     2.2109    0.87365  -4.31666 
 O                     4.12953   0.       -5.83998 
 H                     4.63392   0.87365  -4.10332 
 H                     4.63392  -0.87365  -4.10332 
 H                     5.02237   0.       -6.15565 
 
 NAtoms=     19 NQM=     19 NQMF=      0 NMic=      0 NMicF=      0 NTot=     19.
                    Isotopes and Nuclear Properties:
 (Nuclear quadrupole moments (NQMom) in fm**2, nuclear magnetic moments (NMagM)
  in nuclear magnetons)

  Atom         1           2           3           4           5           6           7           8           9          10
 IAtWgt=          16           1          12          12           1           1          12           1           1          12
 AtmWgt=  15.9949146   1.0078250  12.0000000  12.0000000   1.0078250   1.0078250  12.0000000   1.0078250   1.0078250  12.0000000
 NucSpn=           0           1           0           0           1           1           0           1           1           0
 AtZEff=   0.0000000   0.0000000   0.0000000   0.0000000   0.0000000   0.0000000   0.0000000   0.0000000   0.0000000   0.0000000
 NQMom=    0.0000000   0.0000000   0.0000000   0.0000000   0.0000000   0.0000000   0.0000000   0.0000000   0.0000000   0.0000000
 NMagM=    0.0000000   2.7928460   0.0000000   0.0000000   2.7928460   2.7928460   0.0000000   2.7928460   2.7928460   0.0000000

  Atom        11          12          13          14          15          16          17          18          19
 IAtWgt=           1           1          12           1           1          16           1           1           1
 AtmWgt=   1.0078250   1.0078250  12.0000000   1.0078250   1.0078250  15.9949146   1.0078250   1.0078250   1.0078250
 NucSpn=           1           1           0           1           1           0           1           1           1
 AtZEff=   0.0000000   0.0000000   0.0000000   0.0000000   0.0000000   0.0000000   0.0000000   0.0000000   0.0000000
 NQMom=    0.0000000   0.0000000   0.0000000   0.0000000   0.0000000   0.0000000   0.0000000   0.0000000   0.0000000
 NMagM=    2.7928460   2.7928460   0.0000000   2.7928460   2.7928460   0.0000000   2.7928460   2.7928460   2.7928460
 Leave Link  101 at Mon Mar 14 13:47:19 2022, MaxMem=  536870912 cpu:       0.6
 (Enter /opt/gridunesp/dist/gaussian/g09/l103.exe)

 GradGradGradGradGradGradGradGradGradGradGradGradGradGradGradGradGradGrad
 Berny optimization.
 Initialization pass.
                           ----------------------------
                           !    Initial Parameters    !
                           ! (Angstroms and Degrees)  !
 --------------------------                            --------------------------
 ! Name  Definition              Value          Derivative Info.                !
 --------------------------------------------------------------------------------
 ! R1    R(1,2)                  0.947          estimate D2E/DX2                !
 ! R2    R(1,3)                  1.38           estimate D2E/DX2                !
 ! R3    R(3,4)                  1.5            estimate D2E/DX2                !
 ! R4    R(3,5)                  1.07           estimate D2E/DX2                !
 ! R5    R(3,6)                  1.07           estimate D2E/DX2                !
 ! R6    R(4,7)                  1.5            estimate D2E/DX2                !
 ! R7    R(4,8)                  1.07           estimate D2E/DX2                !
 ! R8    R(4,9)                  1.07           estimate D2E/DX2                !
 ! R9    R(7,10)                 1.5            estimate D2E/DX2                !
 ! R10   R(7,11)                 1.07           estimate D2E/DX2                !
 ! R11   R(7,12)                 1.07           estimate D2E/DX2                !
 ! R12   R(10,13)                1.5            estimate D2E/DX2                !
 ! R13   R(10,14)                1.07           estimate D2E/DX2                !
 ! R14   R(10,15)                1.07           estimate D2E/DX2                !
 ! R15   R(13,16)                1.38           estimate D2E/DX2                !
 ! R16   R(13,17)                1.07           estimate D2E/DX2                !
 ! R17   R(13,18)                1.07           estimate D2E/DX2                !
 ! R18   R(16,19)                0.947          estimate D2E/DX2                !
 ! A1    A(2,1,3)              109.4708         estimate D2E/DX2                !
 ! A2    A(1,3,4)              109.4708         estimate D2E/DX2                !
 ! A3    A(1,3,5)              109.4715         estimate D2E/DX2                !
 ! A4    A(1,3,6)              109.4715         estimate D2E/DX2                !
 ! A5    A(4,3,5)              109.4709         estimate D2E/DX2                !
 ! A6    A(4,3,6)              109.4709         estimate D2E/DX2                !
 ! A7    A(5,3,6)              109.4717         estimate D2E/DX2                !
 ! A8    A(3,4,7)              109.4711         estimate D2E/DX2                !
 ! A9    A(3,4,8)              109.4714         estimate D2E/DX2                !
 ! A10   A(3,4,9)              109.4714         estimate D2E/DX2                !
 ! A11   A(7,4,8)              109.4711         estimate D2E/DX2                !
 ! A12   A(7,4,9)              109.4711         estimate D2E/DX2                !
 ! A13   A(8,4,9)              109.4712         estimate D2E/DX2                !
 ! A14   A(4,7,10)             109.4711         estimate D2E/DX2                !
 ! A15   A(4,7,11)             109.4711         estimate D2E/DX2                !
 ! A16   A(4,7,12)             109.4711         estimate D2E/DX2                !
 ! A17   A(10,7,11)            109.4714         estimate D2E/DX2                !
 ! A18   A(10,7,12)            109.4714         estimate D2E/DX2                !
 ! A19   A(11,7,12)            109.4712         estimate D2E/DX2                !
 ! A20   A(7,10,13)            109.4708         estimate D2E/DX2                !
 ! A21   A(7,10,14)            109.4714         estimate D2E/DX2                !
 ! A22   A(7,10,15)            109.4714         estimate D2E/DX2                !
 ! A23   A(13,10,14)           109.4713         estimate D2E/DX2                !
 ! A24   A(13,10,15)           109.4713         estimate D2E/DX2                !
 ! A25   A(14,10,15)           109.4712         estimate D2E/DX2                !
 ! A26   A(10,13,16)           109.4712         estimate D2E/DX2                !
 ! A27   A(10,13,17)           109.4715         estimate D2E/DX2                !
 ! A28   A(10,13,18)           109.4715         estimate D2E/DX2                !
 ! A29   A(16,13,17)           109.4707         estimate D2E/DX2                !
 ! A30   A(16,13,18)           109.4707         estimate D2E/DX2                !
 ! A31   A(17,13,18)           109.4717         estimate D2E/DX2                !
 ! A32   A(13,16,19)           109.4718         estimate D2E/DX2                !
 ! D1    D(2,1,3,4)            180.0            estimate D2E/DX2                !
 ! D2    D(2,1,3,5)            -60.0005         estimate D2E/DX2                !
 ! D3    D(2,1,3,6)             60.0005         estimate D2E/DX2                !
 ! D4    D(1,3,4,7)            180.0            estimate D2E/DX2                !
 ! D5    D(1,3,4,8)            -60.0001         estimate D2E/DX2                !
 ! D6    D(1,3,4,9)             60.0001         estimate D2E/DX2                !
 ! D7    D(5,3,4,7)             60.0001         estimate D2E/DX2                !
 ! D8    D(5,3,4,8)            180.0            estimate D2E/DX2                !
 ! D9    D(5,3,4,9)            -59.9998         estimate D2E/DX2                !
 ! D10   D(6,3,4,7)            -60.0001         estimate D2E/DX2                !
 ! D11   D(6,3,4,8)             59.9998         estimate D2E/DX2                !
 ! D12   D(6,3,4,9)            180.0            estimate D2E/DX2                !
 ! D13   D(3,4,7,10)           180.0            estimate D2E/DX2                !
 ! D14   D(3,4,7,11)           -59.9999         estimate D2E/DX2                !
 ! D15   D(3,4,7,12)            59.9999         estimate D2E/DX2                !
 ! D16   D(8,4,7,10)            59.9999         estimate D2E/DX2                !
 ! D17   D(8,4,7,11)           180.0            estimate D2E/DX2                !
 ! D18   D(8,4,7,12)           -60.0002         estimate D2E/DX2                !
 ! D19   D(9,4,7,10)           -59.9999         estimate D2E/DX2                !
 ! D20   D(9,4,7,11)            60.0002         estimate D2E/DX2                !
 ! D21   D(9,4,7,12)           180.0            estimate D2E/DX2                !
 ! D22   D(4,7,10,13)          180.0            estimate D2E/DX2                !
 ! D23   D(4,7,10,14)          -60.0001         estimate D2E/DX2                !
 ! D24   D(4,7,10,15)           60.0001         estimate D2E/DX2                !
 ! D25   D(11,7,10,13)          60.0001         estimate D2E/DX2                !
 ! D26   D(11,7,10,14)         180.0            estimate D2E/DX2                !
 ! D27   D(11,7,10,15)         -59.9998         estimate D2E/DX2                !
 ! D28   D(12,7,10,13)         -60.0001         estimate D2E/DX2                !
 ! D29   D(12,7,10,14)          59.9998         estimate D2E/DX2                !
 ! D30   D(12,7,10,15)         180.0            estimate D2E/DX2                !
 ! D31   D(7,10,13,16)         180.0            estimate D2E/DX2                !
 ! D32   D(7,10,13,17)         -60.0005         estimate D2E/DX2                !
 ! D33   D(7,10,13,18)          60.0005         estimate D2E/DX2                !
 ! D34   D(14,10,13,16)         60.0            estimate D2E/DX2                !
 ! D35   D(14,10,13,17)        179.9995         estimate D2E/DX2                !
 ! D36   D(14,10,13,18)        -59.9996         estimate D2E/DX2                !
 ! D37   D(15,10,13,16)        -60.0            estimate D2E/DX2                !
 ! D38   D(15,10,13,17)         59.9996         estimate D2E/DX2                !
 ! D39   D(15,10,13,18)       -179.9995         estimate D2E/DX2                !
 ! D40   D(10,13,16,19)        180.0            estimate D2E/DX2                !
 ! D41   D(17,13,16,19)         60.0            estimate D2E/DX2                !
 ! D42   D(18,13,16,19)        -60.0            estimate D2E/DX2                !
 --------------------------------------------------------------------------------
 Trust Radius=3.00D-01 FncErr=1.00D-07 GrdErr=1.00D-06
 Number of steps in this run= 102 maximum allowed number of steps= 114.
 GradGradGradGradGradGradGradGradGradGradGradGradGradGradGradGradGradGrad

 Leave Link  103 at Mon Mar 14 13:47:20 2022, MaxMem=  536870912 cpu:       0.1
 (Enter /opt/gridunesp/dist/gaussian/g09/l202.exe)
                          Input orientation:                          
 ---------------------------------------------------------------------
 Center     Atomic      Atomic             Coordinates (Angstroms)
 Number     Number       Type             X           Y           Z
 ---------------------------------------------------------------------
      1          8           0        0.000000    0.000000    0.000000
      2          1           0        0.000000    0.000000    0.947000
      3          6           0        1.301080    0.000000   -0.459990
      4          6           0        1.301080    0.000000   -1.959990
      5          1           0        1.805480    0.873650   -0.103330
      6          1           0        1.805480   -0.873650   -0.103330
      7          6           0        2.715300    0.000000   -2.459990
      8          1           0        0.796680   -0.873650   -2.316660
      9          1           0        0.796680    0.873650   -2.316660
     10          6           0        2.715300    0.000000   -3.959990
     11          1           0        3.219700    0.873650   -2.103320
     12          1           0        3.219700   -0.873650   -2.103320
     13          6           0        4.129520    0.000000   -4.459980
     14          1           0        2.210900   -0.873650   -4.316660
     15          1           0        2.210900    0.873650   -4.316660
     16          8           0        4.129530    0.000000   -5.839980
     17          1           0        4.633920    0.873650   -4.103320
     18          1           0        4.633920   -0.873650   -4.103320
     19          1           0        5.022370    0.000000   -6.155650
 ---------------------------------------------------------------------
                    Distance matrix (angstroms):
                    1          2          3          4          5
     1  O    0.000000
     2  H    0.947000   0.000000
     3  C    1.380000   1.916359   0.000000
     4  C    2.352524   3.184870   1.500000   0.000000
     5  H    2.008407   2.264115   1.069995   2.113024   0.000000
     6  H    2.008407   2.264115   1.069995   2.113024   1.747300
     7  C    3.663933   4.356654   2.449493   1.500006   2.672991
     8  H    2.600938   3.471230   2.113033   1.069999   2.994923
     9  H    2.600938   3.471230   2.113033   1.069999   2.432387
    10  C    4.801497   5.608155   3.774920   2.449493   4.057692
    11  H    3.943816   4.520419   2.672995   2.113033   2.449485
    12  H    3.943816   4.520419   2.672995   2.113033   3.008826
    13  C    6.078187   6.803556   4.898979   3.774920   5.014462
    14  H    4.927971   5.775592   4.057701   2.673000   4.579255
    15  H    4.927971   5.775592   4.057701   2.673000   4.232790
    16  O    7.152509   7.944565   6.078192   4.801505   6.250890
    17  H    6.250897   6.909574   5.014473   4.057703   4.898979
    18  H    6.250897   6.909574   5.014473   4.057703   5.201255
    19  H    7.944572   8.698956   6.803568   5.608169   6.909575
                    6          7          8          9         10
     6  H    0.000000
     7  C    2.672991   0.000000
     8  H    2.432387   2.113033   0.000000
     9  H    2.994923   2.113033   1.747300   0.000000
    10  C    4.057692   1.500000   2.672995   2.672995   0.000000
    11  H    3.008826   1.069999   2.994929   2.432394   2.113033
    12  H    2.449485   1.069999   2.432394   2.994929   2.113033
    13  C    5.014462   2.449485   4.057697   4.057697   1.500003
    14  H    4.232790   2.113033   2.449493   3.008833   1.069999
    15  H    4.579255   2.113033   3.008833   2.449493   1.069999
    16  O    6.250890   3.663929   4.927975   4.927975   2.352532
    17  H    5.201255   2.672995   4.579260   4.232796   2.113033
    18  H    4.898979   2.672995   4.232796   4.579260   2.113033
    19  H    6.909575   4.356659   5.775601   5.775601   3.184885
                   11         12         13         14         15
    11  H    0.000000
    12  H    1.747300   0.000000
    13  C    2.672991   2.672991   0.000000
    14  H    2.994930   2.432396   2.113033   0.000000
    15  H    2.432396   2.994930   2.113033   1.747300   0.000000
    16  O    3.943816   3.943816   1.380000   2.600944   2.600944
    17  H    2.449493   3.008833   1.069995   2.994929   2.432394
    18  H    3.008833   2.449493   1.069995   2.432394   2.994929
    19  H    4.520427   4.520427   1.916371   3.471241   3.471241
                   16         17         18         19
    16  O    0.000000
    17  H    2.008398   0.000000
    18  H    2.008398   1.747300   0.000000
    19  H    0.947001   2.264115   2.264115   0.000000
 Stoichiometry    C5H12O2
 Framework group  CS[SG(C5H2O2),X(H10)]
 Deg. of freedom    30
 Full point group                 CS      NOp   2
 Largest Abelian subgroup         CS      NOp   2
 Largest concise Abelian subgroup CS      NOp   2
                         Standard orientation:                         
 ---------------------------------------------------------------------
 Center     Atomic      Atomic             Coordinates (Angstroms)
 Number     Number       Type             X           Y           Z
 ---------------------------------------------------------------------
      1          8           0        1.778392   -3.122486    0.000000
      2          1           0        2.671235   -3.438146    0.000000
      3          6           0        1.778392   -1.742486    0.000000
      4          6           0        0.364175   -1.242497    0.000000
      5          1           0        2.282785   -1.385816    0.873650
      6          1           0        2.282785   -1.385816   -0.873650
      7          6           0        0.364165    0.257509    0.000000
      8          1           0       -0.140227   -1.599164   -0.873650
      9          1           0       -0.140227   -1.599164    0.873650
     10          6           0       -1.050052    0.757498    0.000000
     11          1           0        0.868568    0.614176    0.873650
     12          1           0        0.868568    0.614176   -0.873650
     13          6           0       -1.050052    2.257501    0.000000
     14          1           0       -1.554454    0.400831   -0.873650
     15          1           0       -1.554454    0.400831    0.873650
     16          8           0       -2.351129    2.717500    0.000000
     17          1           0       -0.545659    2.614171    0.873650
     18          1           0       -0.545659    2.614171   -0.873650
     19          1           0       -2.351139    3.664501    0.000000
 ---------------------------------------------------------------------
 Rotational constants (GHZ):     14.7686055      0.7597443      0.7388244
 Leave Link  202 at Mon Mar 14 13:47:20 2022, MaxMem=  536870912 cpu:       0.1
 (Enter /opt/gridunesp/dist/gaussian/g09/l301.exe)
 Standard basis: 6-31G(d,p) (6D, 7F)
 Ernie: Thresh=  0.10000D-02 Tol=  0.10000D-05 Strict=F.
 AO basis set in the form of general basis input (Overlap normalization):
      1 0
 S   6 1.00       0.000000000000
      0.5484671660D+04  0.1831074430D-02
      0.8252349460D+03  0.1395017220D-01
      0.1880469580D+03  0.6844507810D-01
      0.5296450000D+02  0.2327143360D+00
      0.1689757040D+02  0.4701928980D+00
      0.5799635340D+01  0.3585208530D+00
 SP   3 1.00       0.000000000000
      0.1553961625D+02 -0.1107775495D+00  0.7087426823D-01
      0.3599933586D+01 -0.1480262627D+00  0.3397528391D+00
      0.1013761750D+01  0.1130767015D+01  0.7271585773D+00
 SP   1 1.00       0.000000000000
      0.2700058226D+00  0.1000000000D+01  0.1000000000D+01
 D   1 1.00       0.000000000000
      0.8000000000D+00  0.1000000000D+01
 ****
      2 0
 S   3 1.00       0.000000000000
      0.1873113696D+02  0.3349460434D-01
      0.2825394365D+01  0.2347269535D+00
      0.6401216923D+00  0.8137573261D+00
 S   1 1.00       0.000000000000
      0.1612777588D+00  0.1000000000D+01
 P   1 1.00       0.000000000000
      0.1100000000D+01  0.1000000000D+01
 ****
      3 0
 S   6 1.00       0.000000000000
      0.3047524880D+04  0.1834737132D-02
      0.4573695180D+03  0.1403732281D-01
      0.1039486850D+03  0.6884262226D-01
      0.2921015530D+02  0.2321844432D+00
      0.9286662960D+01  0.4679413484D+00
      0.3163926960D+01  0.3623119853D+00
 SP   3 1.00       0.000000000000
      0.7868272350D+01 -0.1193324198D+00  0.6899906659D-01
      0.1881288540D+01 -0.1608541517D+00  0.3164239610D+00
      0.5442492580D+00  0.1143456438D+01  0.7443082909D+00
 SP   1 1.00       0.000000000000
      0.1687144782D+00  0.1000000000D+01  0.1000000000D+01
 D   1 1.00       0.000000000000
      0.8000000000D+00  0.1000000000D+01
 ****
      4 0
 S   6 1.00       0.000000000000
      0.3047524880D+04  0.1834737132D-02
      0.4573695180D+03  0.1403732281D-01
      0.1039486850D+03  0.6884262226D-01
      0.2921015530D+02  0.2321844432D+00
      0.9286662960D+01  0.4679413484D+00
      0.3163926960D+01  0.3623119853D+00
 SP   3 1.00       0.000000000000
      0.7868272350D+01 -0.1193324198D+00  0.6899906659D-01
      0.1881288540D+01 -0.1608541517D+00  0.3164239610D+00
      0.5442492580D+00  0.1143456438D+01  0.7443082909D+00
 SP   1 1.00       0.000000000000
      0.1687144782D+00  0.1000000000D+01  0.1000000000D+01
 D   1 1.00       0.000000000000
      0.8000000000D+00  0.1000000000D+01
 ****
      5 0
 S   3 1.00       0.000000000000
      0.1873113696D+02  0.3349460434D-01
      0.2825394365D+01  0.2347269535D+00
      0.6401216923D+00  0.8137573261D+00
 S   1 1.00       0.000000000000
      0.1612777588D+00  0.1000000000D+01
 P   1 1.00       0.000000000000
      0.1100000000D+01  0.1000000000D+01
 ****
      6 0
 S   3 1.00       0.000000000000
      0.1873113696D+02  0.3349460434D-01
      0.2825394365D+01  0.2347269535D+00
      0.6401216923D+00  0.8137573261D+00
 S   1 1.00       0.000000000000
      0.1612777588D+00  0.1000000000D+01
 P   1 1.00       0.000000000000
      0.1100000000D+01  0.1000000000D+01
 ****
      7 0
 S   6 1.00       0.000000000000
      0.3047524880D+04  0.1834737132D-02
      0.4573695180D+03  0.1403732281D-01
      0.1039486850D+03  0.6884262226D-01
      0.2921015530D+02  0.2321844432D+00
      0.9286662960D+01  0.4679413484D+00
      0.3163926960D+01  0.3623119853D+00
 SP   3 1.00       0.000000000000
      0.7868272350D+01 -0.1193324198D+00  0.6899906659D-01
      0.1881288540D+01 -0.1608541517D+00  0.3164239610D+00
      0.5442492580D+00  0.1143456438D+01  0.7443082909D+00
 SP   1 1.00       0.000000000000
      0.1687144782D+00  0.1000000000D+01  0.1000000000D+01
 D   1 1.00       0.000000000000
      0.8000000000D+00  0.1000000000D+01
 ****
      8 0
 S   3 1.00       0.000000000000
      0.1873113696D+02  0.3349460434D-01
      0.2825394365D+01  0.2347269535D+00
      0.6401216923D+00  0.8137573261D+00
 S   1 1.00       0.000000000000
      0.1612777588D+00  0.1000000000D+01
 P   1 1.00       0.000000000000
      0.1100000000D+01  0.1000000000D+01
 ****
      9 0
 S   3 1.00       0.000000000000
      0.1873113696D+02  0.3349460434D-01
      0.2825394365D+01  0.2347269535D+00
      0.6401216923D+00  0.8137573261D+00
 S   1 1.00       0.000000000000
      0.1612777588D+00  0.1000000000D+01
 P   1 1.00       0.000000000000
      0.1100000000D+01  0.1000000000D+01
 ****
     10 0
 S   6 1.00       0.000000000000
      0.3047524880D+04  0.1834737132D-02
      0.4573695180D+03  0.1403732281D-01
      0.1039486850D+03  0.6884262226D-01
      0.2921015530D+02  0.2321844432D+00
      0.9286662960D+01  0.4679413484D+00
      0.3163926960D+01  0.3623119853D+00
 SP   3 1.00       0.000000000000
      0.7868272350D+01 -0.1193324198D+00  0.6899906659D-01
      0.1881288540D+01 -0.1608541517D+00  0.3164239610D+00
      0.5442492580D+00  0.1143456438D+01  0.7443082909D+00
 SP   1 1.00       0.000000000000
      0.1687144782D+00  0.1000000000D+01  0.1000000000D+01
 D   1 1.00       0.000000000000
      0.8000000000D+00  0.1000000000D+01
 ****
     11 0
 S   3 1.00       0.000000000000
      0.1873113696D+02  0.3349460434D-01
      0.2825394365D+01  0.2347269535D+00
      0.6401216923D+00  0.8137573261D+00
 S   1 1.00       0.000000000000
      0.1612777588D+00  0.1000000000D+01
 P   1 1.00       0.000000000000
      0.1100000000D+01  0.1000000000D+01
 ****
     12 0
 S   3 1.00       0.000000000000
      0.1873113696D+02  0.3349460434D-01
      0.2825394365D+01  0.2347269535D+00
      0.6401216923D+00  0.8137573261D+00
 S   1 1.00       0.000000000000
      0.1612777588D+00  0.1000000000D+01
 P   1 1.00       0.000000000000
      0.1100000000D+01  0.1000000000D+01
 ****
     13 0
 S   6 1.00       0.000000000000
      0.3047524880D+04  0.1834737132D-02
      0.4573695180D+03  0.1403732281D-01
      0.1039486850D+03  0.6884262226D-01
      0.2921015530D+02  0.2321844432D+00
      0.9286662960D+01  0.4679413484D+00
      0.3163926960D+01  0.3623119853D+00
 SP   3 1.00       0.000000000000
      0.7868272350D+01 -0.1193324198D+00  0.6899906659D-01
      0.1881288540D+01 -0.1608541517D+00  0.3164239610D+00
      0.5442492580D+00  0.1143456438D+01  0.7443082909D+00
 SP   1 1.00       0.000000000000
      0.1687144782D+00  0.1000000000D+01  0.1000000000D+01
 D   1 1.00       0.000000000000
      0.8000000000D+00  0.1000000000D+01
 ****
     14 0
 S   3 1.00       0.000000000000
      0.1873113696D+02  0.3349460434D-01
      0.2825394365D+01  0.2347269535D+00
      0.6401216923D+00  0.8137573261D+00
 S   1 1.00       0.000000000000
      0.1612777588D+00  0.1000000000D+01
 P   1 1.00       0.000000000000
      0.1100000000D+01  0.1000000000D+01
 ****
     15 0
 S   3 1.00       0.000000000000
      0.1873113696D+02  0.3349460434D-01
      0.2825394365D+01  0.2347269535D+00
      0.6401216923D+00  0.8137573261D+00
 S   1 1.00       0.000000000000
      0.1612777588D+00  0.1000000000D+01
 P   1 1.00       0.000000000000
      0.1100000000D+01  0.1000000000D+01
 ****
     16 0
 S   6 1.00       0.000000000000
      0.5484671660D+04  0.1831074430D-02
      0.8252349460D+03  0.1395017220D-01
      0.1880469580D+03  0.6844507810D-01
      0.5296450000D+02  0.2327143360D+00
      0.1689757040D+02  0.4701928980D+00
      0.5799635340D+01  0.3585208530D+00
 SP   3 1.00       0.000000000000
      0.1553961625D+02 -0.1107775495D+00  0.7087426823D-01
      0.3599933586D+01 -0.1480262627D+00  0.3397528391D+00
      0.1013761750D+01  0.1130767015D+01  0.7271585773D+00
 SP   1 1.00       0.000000000000
      0.2700058226D+00  0.1000000000D+01  0.1000000000D+01
 D   1 1.00       0.000000000000
      0.8000000000D+00  0.1000000000D+01
 ****
     17 0
 S   3 1.00       0.000000000000
      0.1873113696D+02  0.3349460434D-01
      0.2825394365D+01  0.2347269535D+00
      0.6401216923D+00  0.8137573261D+00
 S   1 1.00       0.000000000000
      0.1612777588D+00  0.1000000000D+01
 P   1 1.00       0.000000000000
      0.1100000000D+01  0.1000000000D+01
 ****
     18 0
 S   3 1.00       0.000000000000
      0.1873113696D+02  0.3349460434D-01
      0.2825394365D+01  0.2347269535D+00
      0.6401216923D+00  0.8137573261D+00
 S   1 1.00       0.000000000000
      0.1612777588D+00  0.1000000000D+01
 P   1 1.00       0.000000000000
      0.1100000000D+01  0.1000000000D+01
 ****
     19 0
 S   3 1.00       0.000000000000
      0.1873113696D+02  0.3349460434D-01
      0.2825394365D+01  0.2347269535D+00
      0.6401216923D+00  0.8137573261D+00
 S   1 1.00       0.000000000000
      0.1612777588D+00  0.1000000000D+01
 P   1 1.00       0.000000000000
      0.1100000000D+01  0.1000000000D+01
 ****

 There are   110 symmetry adapted basis functions of A'  symmetry.
 There are    55 symmetry adapted basis functions of A"  symmetry.
 Integral buffers will be    131072 words long.
 Raffenetti 2 integral format.
 Two-electron integral symmetry is turned on.
   165 basis functions,   280 primitive gaussians,   165 cartesian basis functions
    29 alpha electrons       29 beta electrons
       nuclear repulsion energy       316.1875041256 Hartrees.
 IExCor=  402 DFT=T Ex+Corr=B3LYP ExCW=0 ScaHFX=  0.200000
 ScaDFX=  0.800000  0.720000  1.000000  0.810000 ScalE2=  1.000000  1.000000
 IRadAn=      0 IRanWt=     -1 IRanGd=            0 ICorTp=0
 NAtoms=   19 NActive=   19 NUniq=   14 SFac= 1.38D+00 NAtFMM=   80 NAOKFM=F Big=F
 ------------------------------------------------------------------------------
 Polarizable Continuum Model (PCM)
 =================================
 Model                : PCM.
 Atomic radii         : UFF (Universal Force Field).
 Polarization charges : Total charges.
 Charge compensation  : None.
 Solution method      : Matrix inversion.
 Cavity type          : Scaled VdW (van der Waals Surface) (Alpha=1.100).
 Cavity algorithm     : GePol (No added spheres)
                        Default sphere list used, NSphG=   19.
                        Lebedev-Laikov grids with approx.  5.0 points / Ang**2.
                        Smoothing algorithm: Karplus/York (Gamma=1.0000).
                        Polarization charges: spherical gaussians, with
                                              point-specific exponents (IZeta= 3).
                        Self-potential: point-specific (ISelfS= 7).
                        Self-field    : sphere-specific E.n sum rule (ISelfD= 2).
 1st derivatives      : Analytical E(r).r(x)/FMM algorithm (CHGder, D1EAlg=3).
                        Cavity 1st derivative terms included.
 Solvent              : Water, Eps=  78.355300 Eps(inf)=   1.777849
 ------------------------------------------------------------------------------
 Spheres list:
 ISph  on   Nord    Re0     Alpha      Xe            Ye            Ze
    1   O      1    1.750   1.100      1.778392     -3.122486      0.000000
    2   H      2    1.443   1.100      2.671235     -3.438146      0.000000
    3   C      3    1.926   1.100      1.778392     -1.742486      0.000000
    4   C      4    1.926   1.100      0.364175     -1.242497      0.000000
    5   H      5    1.443   1.100      2.282785     -1.385816      0.873650
    6   H      6    1.443   1.100      2.282785     -1.385816     -0.873650
    7   C      7    1.926   1.100      0.364165      0.257509      0.000000
    8   H      8    1.443   1.100     -0.140227     -1.599164     -0.873650
    9   H      9    1.443   1.100     -0.140227     -1.599164      0.873650
   10   C     10    1.926   1.100     -1.050052      0.757498      0.000000
   11   H     11    1.443   1.100      0.868568      0.614176      0.873650
   12   H     12    1.443   1.100      0.868568      0.614176     -0.873650
   13   C     13    1.926   1.100     -1.050052      2.257501      0.000000
   14   H     14    1.443   1.100     -1.554454      0.400831     -0.873650
   15   H     15    1.443   1.100     -1.554454      0.400831      0.873650
   16   O     16    1.750   1.100     -2.351129      2.717500      0.000000
   17   H     17    1.443   1.100     -0.545659      2.614171      0.873650
   18   H     18    1.443   1.100     -0.545659      2.614171     -0.873650
   19   H     19    1.443   1.100     -2.351139      3.664501      0.000000
 ------------------------------------------------------------------------------
 GePol: Number of generator spheres                  =      19
 GePol: Total number of spheres                      =      19
 GePol: Number of exposed spheres                    =      19 (100.00%)
 GePol: Number of points                             =    1464
 GePol: Average weight of points                     =       0.13
 GePol: Minimum weight of points                     =   0.45D-07
 GePol: Maximum weight of points                     =    0.20299
 GePol: Number of points with low weight             =      75
 GePol: Fraction of low-weight points (<1% of avg)   =       5.12%
 GePol: Cavity surface area                          =    187.202 Ang**2
 GePol: Cavity volume                                =    175.682 Ang**3
 Leave Link  301 at Mon Mar 14 13:47:20 2022, MaxMem=  536870912 cpu:       0.4
 (Enter /opt/gridunesp/dist/gaussian/g09/l302.exe)
 NPDir=0 NMtPBC=     1 NCelOv=     1 NCel=       1 NClECP=     1 NCelD=      1
         NCelK=      1 NCelE2=     1 NClLst=     1 CellRange=     0.0.
 One-electron integrals computed using PRISM.
 One-electron integral symmetry used in STVInt
 NBasis=   165 RedAO= T  NBF=   110    55
 NBsUse=   165 1.00D-06 NBFU=   110    55
 Precomputing XC quadrature grid using
 IXCGrd= 2 IRadAn=           0 IRanWt=          -1 IRanGd=           0 AccXCQ= 1.00D-10.
 NRdTot=    1195 NPtTot=      152002 NUsed=      160627 NTot=      160659
 NSgBfM=   164   164   165   165   165 NAtAll=    19    19.
 Leave Link  302 at Mon Mar 14 13:47:20 2022, MaxMem=  536870912 cpu:       1.3
 (Enter /opt/gridunesp/dist/gaussian/g09/l303.exe)
 DipDrv:  MaxL=1.
 Leave Link  303 at Mon Mar 14 13:47:20 2022, MaxMem=  536870912 cpu:       0.3
 (Enter /opt/gridunesp/dist/gaussian/g09/l401.exe)
 Harris functional with IExCor=  402 diagonalized for initial guess.
 ExpMin= 1.61D-01 ExpMax= 5.48D+03 ExpMxC= 8.25D+02 IAcc=1 IRadAn=         1 AccDes= 0.00D+00
 HarFok:  IExCor=  402 AccDes= 0.00D+00 IRadAn=         1 IDoV= 1
 ScaDFX=  1.000000  1.000000  1.000000  1.000000
 FoFCou: FMM=F IPFlag=           0 FMFlag=      100000 FMFlg1=           0
         NFxFlg=           0 DoJE=T BraDBF=F KetDBF=T FulRan=T
         Omega=  0.000000  0.000000  1.000000  0.000000  0.000000 ICntrl=     500 IOpCl=  0
         NMat0=    1 NMatS0=    1 NMatT0=    0 NMatD0=    1 NMtDS0=    0 NMtDT0=    0
         I1Cent=           4 NGrid=           0.
 Petite list used in FoFCou.
 Harris En= -348.298695157486    
 Initial guess orbital symmetries:
       Occupied  (A') (A') (A') (A') (A') (A') (A') (A') (A') (A')
                 (A') (A') (A') (A') (A') (A") (A') (A") (A') (A')
                 (A") (A') (A') (A") (A") (A') (A') (A") (A")
       Virtual   (A') (A') (A') (A") (A') (A') (A') (A") (A') (A')
                 (A') (A") (A') (A") (A") (A') (A') (A') (A') (A')
                 (A') (A') (A") (A") (A') (A") (A') (A') (A') (A')
                 (A") (A') (A") (A') (A") (A') (A") (A') (A") (A')
                 (A') (A") (A') (A') (A") (A') (A') (A') (A") (A')
                 (A") (A') (A") (A') (A') (A') (A') (A') (A') (A')
                 (A") (A") (A") (A") (A') (A") (A") (A') (A') (A')
                 (A') (A') (A') (A") (A") (A') (A') (A') (A") (A")
                 (A") (A") (A") (A') (A") (A') (A") (A") (A") (A')
                 (A') (A') (A') (A") (A') (A") (A') (A') (A") (A')
                 (A') (A') (A") (A") (A') (A') (A") (A') (A') (A")
                 (A') (A') (A") (A') (A') (A') (A') (A') (A') (A")
                 (A') (A') (A") (A') (A') (A") (A') (A") (A") (A')
                 (A') (A') (A') (A') (A') (A')
 The electronic state of the initial guess is 1-A'.
 Leave Link  401 at Mon Mar 14 13:47:20 2022, MaxMem=  536870912 cpu:       1.8
 (Enter /opt/gridunesp/dist/gaussian/g09/l502.exe)
 Closed shell SCF:
 Requested convergence on RMS density matrix=1.00D-08 within 128 cycles.
 Requested convergence on MAX density matrix=1.00D-06.
 Requested convergence on             energy=1.00D-06.
 No special actions if energy rises.
 Using DIIS extrapolation, IDIIS=  1040.
 Integral symmetry usage will be decided dynamically.
       160443 words used for storage of precomputed grid.
 Keep R1 ints in memory in canonical form, NReq=99551937.
 IEnd=      263070 IEndB=      263070 NGot=   536870912 MDV=   442868485
 LenX=   442868485 LenY=   442840819
 Symmetry not used in FoFDir.
 MinBra= 0 MaxBra= 2 Meth= 1.
 IRaf=       0 NMat=   1 IRICut=       1 DoRegI=T DoRafI=F ISym2E= 0 JSym2E=0.

 Cycle   1  Pass 1  IDiag  1:
 E= -347.920779109587    
 DIIS: error= 5.01D-02 at cycle   1 NSaved=   1.
 NSaved= 1 IEnMin= 1 EnMin= -347.920779109587     IErMin= 1 ErrMin= 5.01D-02
 ErrMax= 5.01D-02 EMaxC= 1.00D-01 BMatC= 2.84D-01 BMatP= 2.84D-01
 IDIUse=3 WtCom= 4.99D-01 WtEn= 5.01D-01
 Coeff-Com:  0.100D+01
 Coeff-En:   0.100D+01
 Coeff:      0.100D+01
 Gap=     0.326 Goal=   None    Shift=    0.000
 GapD=    0.326 DampG=1.000 DampE=0.500 DampFc=0.5000 IDamp=-1.
 Damping current iteration by 5.00D-01
 RMSDP=7.06D-03 MaxDP=1.38D-01              OVMax= 1.87D-01

 Cycle   2  Pass 1  IDiag  1:
 E= -348.043331067245     Delta-E=       -0.122551957657 Rises=F Damp=T
 DIIS: error= 8.19D-03 at cycle   2 NSaved=   2.
 NSaved= 2 IEnMin= 2 EnMin= -348.043331067245     IErMin= 2 ErrMin= 8.19D-03
 ErrMax= 8.19D-03 EMaxC= 1.00D-01 BMatC= 1.11D-02 BMatP= 2.84D-01
 IDIUse=3 WtCom= 9.18D-01 WtEn= 8.19D-02
 Coeff-Com:  0.853D-01 0.915D+00
 Coeff-En:   0.122D+00 0.878D+00
 Coeff:      0.884D-01 0.912D+00
 Gap=     0.355 Goal=   None    Shift=    0.000
 RMSDP=8.97D-04 MaxDP=1.31D-02 DE=-1.23D-01 OVMax= 8.85D-02

 Cycle   3  Pass 1  IDiag  1:
 E= -348.195152846457     Delta-E=       -0.151821779213 Rises=F Damp=F
 DIIS: error= 2.42D-03 at cycle   3 NSaved=   3.
 NSaved= 3 IEnMin= 3 EnMin= -348.195152846457     IErMin= 3 ErrMin= 2.42D-03
 ErrMax= 2.42D-03 EMaxC= 1.00D-01 BMatC= 1.99D-03 BMatP= 1.11D-02
 IDIUse=3 WtCom= 9.76D-01 WtEn= 2.42D-02
 Coeff-Com:  0.602D-02 0.250D+00 0.744D+00
 Coeff-En:   0.000D+00 0.000D+00 0.100D+01
 Coeff:      0.587D-02 0.244D+00 0.750D+00
 Gap=     0.348 Goal=   None    Shift=    0.000
 RMSDP=3.51D-04 MaxDP=9.68D-03 DE=-1.52D-01 OVMax= 1.05D-02

 Cycle   4  Pass 1  IDiag  1:
 E= -348.195935528512     Delta-E=       -0.000782682054 Rises=F Damp=F
 DIIS: error= 1.84D-03 at cycle   4 NSaved=   4.
 NSaved= 4 IEnMin= 4 EnMin= -348.195935528512     IErMin= 4 ErrMin= 1.84D-03
 ErrMax= 1.84D-03 EMaxC= 1.00D-01 BMatC= 9.60D-04 BMatP= 1.99D-03
 IDIUse=3 WtCom= 9.82D-01 WtEn= 1.84D-02
 Coeff-Com: -0.231D-02 0.454D-01 0.418D+00 0.539D+00
 Coeff-En:   0.000D+00 0.000D+00 0.336D+00 0.664D+00
 Coeff:     -0.227D-02 0.446D-01 0.416D+00 0.542D+00
 Gap=     0.351 Goal=   None    Shift=    0.000
 RMSDP=1.64D-04 MaxDP=4.27D-03 DE=-7.83D-04 OVMax= 4.45D-03

 Cycle   5  Pass 1  IDiag  1:
 E= -348.196696968546     Delta-E=       -0.000761440034 Rises=F Damp=F
 DIIS: error= 2.12D-04 at cycle   5 NSaved=   5.
 NSaved= 5 IEnMin= 5 EnMin= -348.196696968546     IErMin= 5 ErrMin= 2.12D-04
 ErrMax= 2.12D-04 EMaxC= 1.00D-01 BMatC= 8.89D-06 BMatP= 9.60D-04
 IDIUse=3 WtCom= 9.98D-01 WtEn= 2.12D-03
 Coeff-Com: -0.538D-03 0.122D-02 0.851D-01 0.156D+00 0.758D+00
 Coeff-En:   0.000D+00 0.000D+00 0.000D+00 0.000D+00 0.100D+01
 Coeff:     -0.537D-03 0.122D-02 0.849D-01 0.156D+00 0.759D+00
 Gap=     0.350 Goal=   None    Shift=    0.000
 RMSDP=2.04D-05 MaxDP=5.02D-04 DE=-7.61D-04 OVMax= 5.58D-04

 Cycle   6  Pass 1  IDiag  1:
 E= -348.196703696840     Delta-E=       -0.000006728294 Rises=F Damp=F
 DIIS: error= 7.21D-05 at cycle   6 NSaved=   6.
 NSaved= 6 IEnMin= 6 EnMin= -348.196703696840     IErMin= 6 ErrMin= 7.21D-05
 ErrMax= 7.21D-05 EMaxC= 1.00D-01 BMatC= 1.09D-06 BMatP= 8.89D-06
 IDIUse=1 WtCom= 1.00D+00 WtEn= 0.00D+00
 Coeff-Com: -0.192D-03-0.710D-03 0.330D-01 0.664D-01 0.387D+00 0.515D+00
 Coeff:     -0.192D-03-0.710D-03 0.330D-01 0.664D-01 0.387D+00 0.515D+00
 Gap=     0.350 Goal=   None    Shift=    0.000
 RMSDP=5.92D-06 MaxDP=1.64D-04 DE=-6.73D-06 OVMax= 1.88D-04

 Cycle   7  Pass 1  IDiag  1:
 E= -348.196704693289     Delta-E=       -0.000000996449 Rises=F Damp=F
 DIIS: error= 9.72D-06 at cycle   7 NSaved=   7.
 NSaved= 7 IEnMin= 7 EnMin= -348.196704693289     IErMin= 7 ErrMin= 9.72D-06
 ErrMax= 9.72D-06 EMaxC= 1.00D-01 BMatC= 1.33D-08 BMatP= 1.09D-06
 IDIUse=1 WtCom= 1.00D+00 WtEn= 0.00D+00
 Coeff-Com:  0.226D-04-0.285D-03 0.152D-02 0.474D-02 0.385D-01 0.122D+00
 Coeff-Com:  0.834D+00
 Coeff:      0.226D-04-0.285D-03 0.152D-02 0.474D-02 0.385D-01 0.122D+00
 Coeff:      0.834D+00
 Gap=     0.350 Goal=   None    Shift=    0.000
 RMSDP=7.41D-07 MaxDP=1.67D-05 DE=-9.96D-07 OVMax= 2.36D-05

 Cycle   8  Pass 1  IDiag  1:
 E= -348.196704705515     Delta-E=       -0.000000012226 Rises=F Damp=F
 DIIS: error= 1.17D-06 at cycle   8 NSaved=   8.
 NSaved= 8 IEnMin= 8 EnMin= -348.196704705515     IErMin= 8 ErrMin= 1.17D-06
 ErrMax= 1.17D-06 EMaxC= 1.00D-01 BMatC= 3.24D-10 BMatP= 1.33D-08
 IDIUse=1 WtCom= 1.00D+00 WtEn= 0.00D+00
 Coeff-Com:  0.120D-04-0.402D-04-0.701D-03-0.933D-03-0.364D-02 0.964D-02
 Coeff-Com:  0.187D+00 0.809D+00
 Coeff:      0.120D-04-0.402D-04-0.701D-03-0.933D-03-0.364D-02 0.964D-02
 Coeff:      0.187D+00 0.809D+00
 Gap=     0.350 Goal=   None    Shift=    0.000
 RMSDP=1.24D-07 MaxDP=2.48D-06 DE=-1.22D-08 OVMax= 3.94D-06

 Cycle   9  Pass 1  IDiag  1:
 E= -348.196704705789     Delta-E=       -0.000000000274 Rises=F Damp=F
 DIIS: error= 3.39D-07 at cycle   9 NSaved=   9.
 NSaved= 9 IEnMin= 9 EnMin= -348.196704705789     IErMin= 9 ErrMin= 3.39D-07
 ErrMax= 3.39D-07 EMaxC= 1.00D-01 BMatC= 2.34D-11 BMatP= 3.24D-10
 IDIUse=1 WtCom= 1.00D+00 WtEn= 0.00D+00
 Coeff-Com:  0.393D-05-0.108D-04-0.310D-03-0.440D-03-0.209D-02 0.187D-02
 Coeff-Com:  0.633D-01 0.324D+00 0.614D+00
 Coeff:      0.393D-05-0.108D-04-0.310D-03-0.440D-03-0.209D-02 0.187D-02
 Coeff:      0.633D-01 0.324D+00 0.614D+00
 Gap=     0.350 Goal=   None    Shift=    0.000
 RMSDP=3.00D-08 MaxDP=1.14D-06 DE=-2.74D-10 OVMax= 1.20D-06

 Cycle  10  Pass 1  IDiag  1:
 E= -348.196704705808     Delta-E=       -0.000000000019 Rises=F Damp=F
 DIIS: error= 9.68D-08 at cycle  10 NSaved=  10.
 NSaved=10 IEnMin=10 EnMin= -348.196704705808     IErMin=10 ErrMin= 9.68D-08
 ErrMax= 9.68D-08 EMaxC= 1.00D-01 BMatC= 2.06D-12 BMatP= 2.34D-11
 IDIUse=1 WtCom= 1.00D+00 WtEn= 0.00D+00
 Coeff-Com: -0.178D-06 0.113D-05-0.353D-04-0.512D-04-0.364D-03-0.474D-03
 Coeff-Com:  0.231D-02 0.278D-01 0.243D+00 0.728D+00
 Coeff:     -0.178D-06 0.113D-05-0.353D-04-0.512D-04-0.364D-03-0.474D-03
 Coeff:      0.231D-02 0.278D-01 0.243D+00 0.728D+00
 Gap=     0.350 Goal=   None    Shift=    0.000
 RMSDP=7.23D-09 MaxDP=2.77D-07 DE=-1.88D-11 OVMax= 2.81D-07

 Error on total polarization charges =  0.00694
 SCF Done:  E(RB3LYP) =  -348.196704706     A.U. after   10 cycles
             Convg  =    0.7229D-08             -V/T =  2.0066
 KE= 3.459186744990D+02 PE=-1.445481450014D+03 EE= 4.351785666836D+02
 Leave Link  502 at Mon Mar 14 13:47:30 2022, MaxMem=  536870912 cpu:      75.3
 (Enter /opt/gridunesp/dist/gaussian/g09/l601.exe)
 Copying SCF densities to generalized density rwf, IOpCl= 0 IROHF=0.

 **********************************************************************

            Population analysis using the SCF density.

 **********************************************************************

 Orbital symmetries:
       Occupied  (A') (A') (A') (A') (A') (A') (A') (A') (A') (A')
                 (A') (A') (A') (A') (A') (A') (A") (A") (A') (A")
                 (A') (A") (A') (A') (A") (A') (A') (A") (A")
       Virtual   (A') (A') (A') (A") (A') (A') (A") (A') (A') (A")
                 (A') (A") (A") (A') (A') (A') (A') (A') (A') (A')
                 (A') (A") (A") (A') (A') (A") (A') (A') (A') (A')
                 (A") (A') (A') (A") (A") (A') (A") (A') (A") (A')
                 (A') (A") (A') (A') (A") (A') (A') (A') (A") (A')
                 (A") (A') (A") (A') (A') (A') (A') (A') (A') (A')
                 (A") (A") (A") (A') (A") (A") (A") (A') (A') (A')
                 (A') (A') (A') (A") (A") (A') (A') (A') (A") (A")
                 (A") (A") (A") (A') (A") (A') (A") (A") (A") (A')
                 (A') (A') (A') (A") (A') (A") (A') (A') (A") (A')
                 (A') (A") (A") (A') (A') (A') (A") (A') (A') (A')
                 (A") (A') (A") (A') (A') (A') (A') (A') (A') (A')
                 (A") (A') (A") (A') (A') (A') (A") (A") (A") (A')
                 (A') (A') (A') (A') (A') (A')
 The electronic state is 1-A'.
 Alpha  occ. eigenvalues --  -19.13312 -19.13306 -10.21072 -10.21068 -10.16673
 Alpha  occ. eigenvalues --  -10.16360 -10.16357  -1.02486  -1.02476  -0.81282
 Alpha  occ. eigenvalues --   -0.74680  -0.66302  -0.59322  -0.58557  -0.51964
 Alpha  occ. eigenvalues --   -0.50095  -0.50013  -0.46956  -0.42645  -0.41772
 Alpha  occ. eigenvalues --   -0.40276  -0.35907  -0.34922  -0.34733  -0.33145
 Alpha  occ. eigenvalues --   -0.32186  -0.30300  -0.26142  -0.26117
 Alpha virt. eigenvalues --    0.08903   0.09657   0.09789   0.12758   0.14360
 Alpha virt. eigenvalues --    0.14514   0.18185   0.18980   0.20103   0.21107
 Alpha virt. eigenvalues --    0.22028   0.22220   0.22674   0.22922   0.25235
 Alpha virt. eigenvalues --    0.26873   0.33090   0.33942   0.47783   0.53882
 Alpha virt. eigenvalues --    0.55102   0.57125   0.57213   0.57814   0.62374
 Alpha virt. eigenvalues --    0.62987   0.68393   0.69253   0.72402   0.74177
 Alpha virt. eigenvalues --    0.74470   0.76321   0.79812   0.80303   0.83130
 Alpha virt. eigenvalues --    0.85451   0.85927   0.87426   0.90646   0.92325
 Alpha virt. eigenvalues --    0.92702   0.93806   0.96226   0.97390   0.97771
 Alpha virt. eigenvalues --    0.97906   0.99006   1.00296   1.03919   1.16290
 Alpha virt. eigenvalues --    1.18877   1.22609   1.30031   1.30683   1.36362
 Alpha virt. eigenvalues --    1.37915   1.42673   1.45666   1.52652   1.55241
 Alpha virt. eigenvalues --    1.56938   1.59314   1.61311   1.66358   1.67179
 Alpha virt. eigenvalues --    1.70026   1.71540   1.78616   1.88240   1.89923
 Alpha virt. eigenvalues --    1.90654   1.94242   1.94248   1.99068   1.99292
 Alpha virt. eigenvalues --    2.01674   2.05039   2.09693   2.09907   2.10693
 Alpha virt. eigenvalues --    2.11658   2.17450   2.17462   2.17968   2.26696
 Alpha virt. eigenvalues --    2.28659   2.29836   2.32944   2.34186   2.37031
 Alpha virt. eigenvalues --    2.37641   2.38864   2.41421   2.45378   2.49310
 Alpha virt. eigenvalues --    2.51894   2.59069   2.64422   2.65768   2.69617
 Alpha virt. eigenvalues --    2.69632   2.70511   2.72868   2.75092   2.77683
 Alpha virt. eigenvalues --    2.78904   2.84241   2.86147   2.91015   2.92643
 Alpha virt. eigenvalues --    2.93454   2.94519   2.97411   2.99047   3.00532
 Alpha virt. eigenvalues --    3.04484   3.09034   3.30214   3.33345   3.33804
 Alpha virt. eigenvalues --    3.34347   3.38033   3.45439   3.45596   3.52024
 Alpha virt. eigenvalues --    3.55469   3.56740   3.63801   3.64371   3.99606
 Alpha virt. eigenvalues --    4.05706   4.29559   4.40874   4.50978   4.62973
 Alpha virt. eigenvalues --    4.80345
     Molecular Orbital Coefficients:
                           1         2         3         4         5
                           O         O         O         O         O
     Eigenvalues --   -19.13312 -19.13306 -10.21072 -10.21068 -10.16673
   1 1   O  1S          0.99275   0.00083  -0.00013  -0.00002  -0.00006
   2        2S          0.02599   0.00005  -0.00020  -0.00009  -0.00024
   3        2PX         0.00099   0.00000  -0.00002   0.00001   0.00003
   4        2PY         0.00043   0.00000  -0.00012  -0.00002  -0.00004
   5        2PZ         0.00000   0.00000   0.00000   0.00000   0.00000
   6        3S          0.01211  -0.00014   0.00219   0.00040   0.00118
   7        3PX        -0.00012  -0.00002  -0.00032  -0.00012  -0.00033
   8        3PY         0.00057  -0.00006   0.00001   0.00018   0.00049
   9        3PZ         0.00000   0.00000   0.00000   0.00000   0.00000
  10        4XX        -0.00789   0.00001  -0.00021  -0.00008  -0.00021
  11        4YY        -0.00809   0.00000  -0.00085  -0.00004  -0.00011
  12        4ZZ        -0.00807   0.00001   0.00002  -0.00007  -0.00017
  13        4XY        -0.00009   0.00000  -0.00003   0.00000  -0.00002
  14        4XZ         0.00000   0.00000   0.00000   0.00000   0.00000
  15        4YZ         0.00000   0.00000   0.00000   0.00000   0.00000
  16 2   H  1S          0.00023   0.00001   0.00012   0.00004   0.00007
  17        2S         -0.00124  -0.00003   0.00014   0.00006   0.00012
  18        3PX         0.00024   0.00000  -0.00006  -0.00002  -0.00006
  19        3PY        -0.00016   0.00000   0.00016   0.00001   0.00000
  20        3PZ         0.00000   0.00000   0.00000   0.00000   0.00000
  21 3   C  1S          0.00002   0.00001   0.99287   0.01668  -0.00010
  22        2S          0.00037   0.00005   0.04994   0.00082  -0.00011
  23        2PX        -0.00004   0.00000   0.00007   0.00001   0.00005
  24        2PY        -0.00035   0.00001  -0.00064  -0.00001  -0.00001
  25        2PZ         0.00000   0.00000   0.00000   0.00000   0.00000
  26        3S         -0.00248  -0.00023  -0.01833  -0.00034  -0.00050
  27        3PX         0.00067   0.00012   0.00185  -0.00014   0.00054
  28        3PY         0.00102  -0.00025  -0.00131   0.00013   0.00057
  29        3PZ         0.00000   0.00000   0.00000   0.00000   0.00000
  30        4XX         0.00003   0.00001  -0.00906  -0.00014  -0.00009
  31        4YY         0.00016   0.00002  -0.00864  -0.00019  -0.00004
  32        4ZZ         0.00009   0.00002  -0.00882  -0.00018  -0.00007
  33        4XY         0.00006   0.00001   0.00007   0.00000   0.00000
  34        4XZ         0.00000   0.00000   0.00000   0.00000   0.00000
  35        4YZ         0.00000   0.00000   0.00000   0.00000   0.00000
  36 4   C  1S         -0.00003   0.00000   0.00267  -0.00004   0.04155
  37        2S         -0.00009  -0.00003  -0.00019  -0.00027   0.00172
  38        2PX         0.00003  -0.00001  -0.00015   0.00004  -0.00006
  39        2PY        -0.00008   0.00001   0.00006   0.00000  -0.00011
  40        2PZ         0.00000   0.00000   0.00000   0.00000   0.00000
  41        3S          0.00200   0.00029   0.00533   0.00208   0.00558
  42        3PX         0.00041   0.00007   0.00295  -0.00044   0.00033
  43        3PY         0.00093   0.00006  -0.00114   0.00113   0.00275
  44        3PZ         0.00000   0.00000   0.00000   0.00000   0.00000
  45        4XX        -0.00005   0.00000  -0.00031  -0.00010  -0.00054
  46        4YY        -0.00005   0.00000  -0.00022   0.00001  -0.00077
  47        4ZZ        -0.00005   0.00000  -0.00019  -0.00009  -0.00055
  48        4XY         0.00003  -0.00001   0.00002  -0.00003  -0.00008
  49        4XZ         0.00000   0.00000   0.00000   0.00000   0.00000
  50        4YZ         0.00000   0.00000   0.00000   0.00000   0.00000
  51 5   H  1S          0.00000   0.00002   0.00000  -0.00001   0.00001
  52        2S         -0.00002   0.00001   0.00298   0.00014  -0.00034
  53        3PX         0.00001   0.00000  -0.00002   0.00000   0.00001
  54        3PY         0.00005   0.00001   0.00010  -0.00001  -0.00005
  55        3PZ         0.00007   0.00000   0.00010  -0.00001   0.00001
  56 6   H  1S          0.00000   0.00002   0.00000  -0.00001   0.00001
  57        2S         -0.00002   0.00001   0.00298   0.00014  -0.00034
  58        3PX         0.00001   0.00000  -0.00002   0.00000   0.00001
  59        3PY         0.00005   0.00001   0.00010  -0.00001  -0.00005
  60        3PZ        -0.00007   0.00000  -0.00010   0.00001  -0.00001
  61 7   C  1S          0.00004   0.00004  -0.00007  -0.00007   0.99130
  62        2S          0.00019   0.00019  -0.00013  -0.00014   0.05083
  63        2PX         0.00001   0.00000  -0.00014   0.00002   0.00005
  64        2PY         0.00000   0.00001   0.00007  -0.00015   0.00004
  65        2PZ         0.00000   0.00000   0.00000   0.00000   0.00000
  66        3S         -0.00163  -0.00163  -0.00047  -0.00049  -0.02212
  67        3PX        -0.00012   0.00080   0.00166   0.00023   0.00153
  68        3PY         0.00089  -0.00041  -0.00040   0.00169   0.00108
  69        3PZ         0.00000   0.00000   0.00000   0.00000   0.00000
  70        4XX         0.00006   0.00000  -0.00005  -0.00001  -0.00893
  71        4YY        -0.00002   0.00004   0.00000  -0.00004  -0.00903
  72        4ZZ         0.00005   0.00005  -0.00005  -0.00005  -0.00864
  73        4XY         0.00002   0.00004   0.00000  -0.00002   0.00015
  74        4XZ         0.00000   0.00000   0.00000   0.00000   0.00000
  75        4YZ         0.00000   0.00000   0.00000   0.00000   0.00000
  76 8   H  1S          0.00001  -0.00001  -0.00014  -0.00009  -0.00016
  77        2S          0.00001   0.00000   0.00023  -0.00006   0.00024
  78        3PX         0.00002   0.00000   0.00005   0.00003   0.00002
  79        3PY        -0.00007   0.00000   0.00002  -0.00002   0.00006
  80        3PZ         0.00002   0.00000   0.00006   0.00001   0.00005
  81 9   H  1S          0.00001  -0.00001  -0.00014  -0.00009  -0.00016
  82        2S          0.00001   0.00000   0.00023  -0.00006   0.00024
  83        3PX         0.00002   0.00000   0.00005   0.00003   0.00002
  84        3PY        -0.00007   0.00000   0.00002  -0.00002   0.00006
  85        3PZ        -0.00002   0.00000  -0.00006  -0.00001  -0.00005
  86 10  C  1S          0.00000  -0.00003  -0.00013   0.00267   0.04115
  87        2S         -0.00003  -0.00009  -0.00027  -0.00020   0.00170
  88        2PX         0.00000  -0.00007   0.00001   0.00001  -0.00012
  89        2PY        -0.00001   0.00005   0.00004  -0.00016  -0.00002
  90        2PZ         0.00000   0.00000   0.00000   0.00000   0.00000
  91        3S          0.00028   0.00200   0.00190   0.00540   0.00559
  92        3PX         0.00008   0.00101   0.00092  -0.00006   0.00270
  93        3PY         0.00005   0.00007  -0.00090   0.00313  -0.00061
  94        3PZ         0.00000   0.00000   0.00000   0.00000   0.00000
  95        4XX        -0.00001  -0.00003  -0.00001  -0.00022  -0.00078
  96        4YY         0.00001  -0.00007  -0.00006  -0.00031  -0.00052
  97        4ZZ         0.00000  -0.00005  -0.00008  -0.00020  -0.00054
  98        4XY        -0.00001   0.00003  -0.00006  -0.00002   0.00002
  99        4XZ         0.00000   0.00000   0.00000   0.00000   0.00000
 100        4YZ         0.00000   0.00000   0.00000   0.00000   0.00000
 101 11  H  1S          0.00005   0.00006  -0.00004  -0.00004   0.00001
 102        2S          0.00002   0.00002  -0.00047  -0.00048   0.00301
 103        3PX         0.00001  -0.00001  -0.00007   0.00003   0.00006
 104        3PY        -0.00002   0.00002   0.00006  -0.00009   0.00004
 105        3PZ         0.00001   0.00001   0.00003   0.00004   0.00022
 106 12  H  1S          0.00005   0.00006  -0.00004  -0.00004   0.00001
 107        2S          0.00002   0.00002  -0.00047  -0.00048   0.00301
 108        3PX         0.00001  -0.00001  -0.00007   0.00003   0.00006
 109        3PY        -0.00002   0.00002   0.00006  -0.00009   0.00004
 110        3PZ        -0.00001  -0.00001  -0.00003  -0.00004  -0.00022
 111 13  C  1S          0.00001   0.00002  -0.01669   0.99287  -0.00010
 112        2S          0.00005   0.00037  -0.00086   0.04994  -0.00011
 113        2PX         0.00001  -0.00034   0.00001  -0.00058   0.00001
 114        2PY         0.00000   0.00008   0.00001   0.00028   0.00005
 115        2PZ         0.00000   0.00000   0.00000   0.00000   0.00000
 116        3S         -0.00022  -0.00248   0.00028  -0.01833  -0.00050
 117        3PX        -0.00020   0.00118   0.00010  -0.00062   0.00072
 118        3PY         0.00020   0.00029  -0.00025   0.00217   0.00032
 119        3PZ         0.00000   0.00000   0.00000   0.00000   0.00000
 120        4XX         0.00003   0.00018   0.00011  -0.00865  -0.00005
 121        4YY         0.00000   0.00002   0.00016  -0.00905  -0.00008
 122        4ZZ         0.00002   0.00009   0.00012  -0.00882  -0.00007
 123        4XY         0.00000   0.00000   0.00002  -0.00010  -0.00002
 124        4XZ         0.00000   0.00000   0.00000   0.00000   0.00000
 125        4YZ         0.00000   0.00000   0.00000   0.00000   0.00000
 126 14  H  1S         -0.00001   0.00001  -0.00009  -0.00014  -0.00016
 127        2S          0.00000   0.00001  -0.00007   0.00022   0.00024
 128        3PX         0.00000  -0.00006  -0.00001   0.00004   0.00006
 129        3PY         0.00000   0.00004   0.00003   0.00004   0.00000
 130        3PZ         0.00000   0.00002   0.00001   0.00006   0.00005
 131 15  H  1S         -0.00001   0.00001  -0.00009  -0.00014  -0.00016
 132        2S          0.00000   0.00001  -0.00007   0.00022   0.00024
 133        3PX         0.00000  -0.00006  -0.00001   0.00004   0.00006
 134        3PY         0.00000   0.00004   0.00003   0.00004   0.00000
 135        3PZ         0.00000  -0.00002  -0.00001  -0.00006  -0.00005
 136 16  O  1S         -0.00081   0.99275  -0.00002  -0.00013  -0.00006
 137        2S          0.00001   0.02599  -0.00008  -0.00020  -0.00024
 138        2PX         0.00000   0.00074  -0.00001  -0.00012  -0.00003
 139        2PY         0.00000   0.00079   0.00002   0.00002   0.00004
 140        2PZ         0.00000   0.00000   0.00000   0.00000   0.00000
 141        3S         -0.00016   0.01211   0.00033   0.00221   0.00118
 142        3PX        -0.00006   0.00050   0.00013  -0.00009   0.00035
 143        3PY         0.00000  -0.00030  -0.00016  -0.00031  -0.00047
 144        3PZ         0.00000   0.00000   0.00000   0.00000   0.00000
 145        4XX         0.00001  -0.00812  -0.00002  -0.00080  -0.00013
 146        4YY         0.00002  -0.00787  -0.00006  -0.00026  -0.00019
 147        4ZZ         0.00003  -0.00807  -0.00007   0.00002  -0.00017
 148        4XY         0.00000   0.00000  -0.00002   0.00021  -0.00005
 149        4XZ         0.00000   0.00000   0.00000   0.00000   0.00000
 150        4YZ         0.00000   0.00000   0.00000   0.00000   0.00000
 151 17  H  1S          0.00002   0.00000  -0.00001   0.00000   0.00001
 152        2S          0.00001  -0.00002   0.00004   0.00299  -0.00034
 153        3PX         0.00001   0.00005  -0.00001   0.00009  -0.00005
 154        3PY         0.00000  -0.00001   0.00000  -0.00005   0.00002
 155        3PZ         0.00000   0.00007  -0.00001   0.00010   0.00001
 156 18  H  1S          0.00002   0.00000  -0.00001   0.00000   0.00001
 157        2S          0.00001  -0.00002   0.00004   0.00299  -0.00034
 158        3PX         0.00001   0.00005  -0.00001   0.00009  -0.00005
 159        3PY         0.00000  -0.00001   0.00000  -0.00005   0.00002
 160        3PZ         0.00000  -0.00007   0.00001  -0.00010  -0.00001
 161 19  H  1S          0.00001   0.00023   0.00003   0.00012   0.00007
 162        2S         -0.00003  -0.00124   0.00006   0.00014   0.00012
 163        3PX         0.00000  -0.00007   0.00000   0.00013  -0.00002
 164        3PY         0.00000   0.00028  -0.00002  -0.00011  -0.00005
 165        3PZ         0.00000   0.00000   0.00000   0.00000   0.00000
                           6         7         8         9        10
                           O         O         O         O         O
     Eigenvalues --   -10.16360 -10.16357  -1.02486  -1.02476  -0.81282
   1 1   O  1S          0.00004   0.00001  -0.17944   0.09260   0.02649
   2        2S          0.00012   0.00003   0.39122  -0.20100  -0.05962
   3        2PX         0.00003   0.00000   0.07379  -0.03802  -0.03244
   4        2PY        -0.00002  -0.00001   0.06645  -0.03414   0.02552
   5        2PZ         0.00000   0.00000   0.00000   0.00000   0.00000
   6        3S         -0.00113  -0.00025   0.38024  -0.19998  -0.06568
   7        3PX        -0.00004   0.00009   0.02005  -0.01039  -0.01085
   8        3PY        -0.00025  -0.00006   0.04039  -0.02237   0.01031
   9        3PZ         0.00000   0.00000   0.00000   0.00000   0.00000
  10        4XX         0.00020   0.00005  -0.00251   0.00165  -0.00138
  11        4YY         0.00012   0.00003   0.00686  -0.00339   0.00364
  12        4ZZ         0.00004   0.00000  -0.00934   0.00514   0.00063
  13        4XY        -0.00006   0.00001   0.00107  -0.00057  -0.00012
  14        4XZ         0.00000   0.00000   0.00000   0.00000   0.00000
  15        4YZ         0.00000   0.00000   0.00000   0.00000   0.00000
  16 2   H  1S          0.00002  -0.00002   0.12587  -0.06475  -0.03600
  17        2S          0.00021   0.00014   0.01225  -0.00672  -0.00780
  18        3PX         0.00004   0.00001  -0.01892   0.00980   0.00433
  19        3PY         0.00004   0.00003   0.00880  -0.00452  -0.00136
  20        3PZ         0.00000   0.00000   0.00000   0.00000   0.00000
  21 3   C  1S         -0.00287  -0.00064  -0.07160   0.03681  -0.04834
  22        2S         -0.00043  -0.00034   0.13658  -0.06998   0.09329
  23        2PX         0.00009   0.00000   0.00259  -0.00162  -0.04590
  24        2PY         0.00000  -0.00003  -0.09798   0.05084   0.04326
  25        2PZ         0.00000   0.00000   0.00000   0.00000   0.00000
  26        3S          0.00572   0.00305   0.02745  -0.01085   0.06696
  27        3PX        -0.00240  -0.00128   0.01228  -0.00749  -0.00836
  28        3PY         0.00054   0.00084   0.00739  -0.00775   0.00950
  29        3PZ         0.00000   0.00000   0.00000   0.00000   0.00000
  30        4XX        -0.00036  -0.00011  -0.00901   0.00479   0.00415
  31        4YY        -0.00010  -0.00008   0.01697  -0.00849  -0.00592
  32        4ZZ        -0.00010  -0.00010  -0.01118   0.00580  -0.00322
  33        4XY         0.00004  -0.00004  -0.00280   0.00145  -0.00259
  34        4XZ         0.00000   0.00000   0.00000   0.00000   0.00000
  35        4YZ         0.00000   0.00000   0.00000   0.00000   0.00000
  36 4   C  1S          0.96955   0.21061  -0.01594   0.00743  -0.10803
  37        2S          0.04980   0.01085   0.02592  -0.01208   0.20183
  38        2PX        -0.00006   0.00007   0.01682  -0.00865   0.01206
  39        2PY         0.00001  -0.00005  -0.01188   0.00682   0.05009
  40        2PZ         0.00000   0.00000   0.00000   0.00000   0.00000
  41        3S         -0.02201  -0.00658   0.03888  -0.02191   0.15056
  42        3PX        -0.00126  -0.00141   0.01203  -0.01075   0.00159
  43        3PY        -0.00159  -0.00092   0.00213  -0.00086   0.01128
  44        3PZ         0.00000   0.00000   0.00000   0.00000   0.00000
  45        4XX        -0.00874  -0.00187   0.00283  -0.00160  -0.00401
  46        4YY        -0.00884  -0.00193   0.00049  -0.00021   0.00259
  47        4ZZ        -0.00846  -0.00184  -0.00184   0.00091  -0.00783
  48        4XY         0.00014   0.00003  -0.00311   0.00143  -0.00142
  49        4XZ         0.00000   0.00000   0.00000   0.00000   0.00000
  50        4YZ         0.00000   0.00000   0.00000   0.00000   0.00000
  51 5   H  1S         -0.00014  -0.00012   0.02677  -0.01360   0.02822
  52        2S          0.00001  -0.00005   0.00265  -0.00108   0.00509
  53        3PX        -0.00007  -0.00001  -0.00225   0.00115  -0.00185
  54        3PY         0.00003  -0.00002  -0.00234   0.00136  -0.00033
  55        3PZ        -0.00004  -0.00002  -0.00328   0.00165  -0.00228
  56 6   H  1S         -0.00014  -0.00012   0.02677  -0.01360   0.02822
  57        2S          0.00001  -0.00005   0.00265  -0.00108   0.00509
  58        3PX        -0.00007  -0.00001  -0.00225   0.00115  -0.00185
  59        3PY         0.00003  -0.00002  -0.00234   0.00136  -0.00033
  60        3PZ         0.00004   0.00002   0.00328  -0.00165   0.00228
  61 7   C  1S         -0.03206  -0.04943  -0.00401  -0.00128  -0.13139
  62        2S         -0.00197  -0.00304   0.01076   0.00345   0.24568
  63        2PX         0.00002   0.00016  -0.00031  -0.00387  -0.03605
  64        2PY         0.00014   0.00003  -0.00254   0.00451  -0.02552
  65        2PZ         0.00000   0.00000   0.00000   0.00000   0.00000
  66        3S          0.00601   0.00934  -0.01367  -0.00438   0.17939
  67        3PX         0.00015  -0.00328  -0.00103   0.01129  -0.00482
  68        3PY        -0.00328  -0.00015   0.00644  -0.01438  -0.00340
  69        3PZ         0.00000   0.00000   0.00000   0.00000   0.00000
  70        4XX         0.00020   0.00002   0.00031   0.00024  -0.00186
  71        4YY        -0.00004   0.00022   0.00028  -0.00005   0.00030
  72        4ZZ         0.00014   0.00021   0.00011   0.00004  -0.00947
  73        4XY        -0.00009  -0.00002   0.00019   0.00000  -0.00353
  74        4XZ         0.00000   0.00000   0.00000   0.00000   0.00000
  75        4YZ         0.00000   0.00000   0.00000   0.00000   0.00000
  76 8   H  1S          0.00003   0.00002   0.00638  -0.00303   0.05893
  77        2S          0.00293   0.00024   0.00297  -0.00251   0.01070
  78        3PX        -0.00008   0.00003   0.00073  -0.00027   0.00292
  79        3PY        -0.00002  -0.00004  -0.00028   0.00013   0.00272
  80        3PZ        -0.00021  -0.00008   0.00093  -0.00052   0.00508
  81 9   H  1S          0.00003   0.00002   0.00638  -0.00303   0.05893
  82        2S          0.00293   0.00024   0.00297  -0.00251   0.01070
  83        3PX        -0.00008   0.00003   0.00073  -0.00027   0.00292
  84        3PY        -0.00002  -0.00004  -0.00028   0.00013   0.00272
  85        3PZ         0.00021   0.00008  -0.00093   0.00052  -0.00508
  86 10  C  1S         -0.21229   0.96920  -0.00866  -0.01531  -0.10799
  87        2S         -0.01088   0.04980   0.01407   0.02490   0.20174
  88        2PX        -0.00002  -0.00002  -0.00250  -0.00614   0.05125
  89        2PY         0.00010  -0.00001   0.01007   0.02000  -0.00534
  90        2PZ         0.00000   0.00000   0.00000   0.00000   0.00000
  91        3S          0.00319  -0.02275   0.01891   0.04042   0.15048
  92        3PX        -0.00042  -0.00230   0.00235   0.00708   0.01119
  93        3PY        -0.00066  -0.00102   0.00293   0.01418  -0.00230
  94        3PZ         0.00000   0.00000   0.00000   0.00000   0.00000
  95        4XX         0.00191  -0.00875  -0.00053  -0.00088   0.00108
  96        4YY         0.00195  -0.00881   0.00218   0.00429  -0.00250
  97        4ZZ         0.00185  -0.00846  -0.00097  -0.00181  -0.00783
  98        4XY        -0.00002   0.00015  -0.00092  -0.00140  -0.00350
  99        4XZ         0.00000   0.00000   0.00000   0.00000   0.00000
 100        4YZ         0.00000   0.00000   0.00000   0.00000   0.00000
 101 11  H  1S         -0.00012  -0.00018   0.00299   0.00096   0.07241
 102        2S          0.00001   0.00002  -0.00052  -0.00017   0.01336
 103        3PX        -0.00001  -0.00006   0.00007  -0.00030  -0.00399
 104        3PY        -0.00005  -0.00001  -0.00015   0.00041  -0.00282
 105        3PZ        -0.00006  -0.00009  -0.00006  -0.00002  -0.00623
 106 12  H  1S         -0.00012  -0.00018   0.00299   0.00096   0.07241
 107        2S          0.00001   0.00002  -0.00052  -0.00017   0.01336
 108        3PX        -0.00001  -0.00006   0.00007  -0.00030  -0.00399
 109        3PY        -0.00005  -0.00001  -0.00015   0.00041  -0.00282
 110        3PZ         0.00006   0.00009   0.00006   0.00002   0.00623
 111 13  C  1S          0.00061  -0.00287  -0.03689  -0.07156  -0.04830
 112        2S         -0.00013  -0.00053   0.07049   0.13632   0.09322
 113        2PX        -0.00003   0.00002  -0.04694  -0.09175   0.02548
 114        2PY        -0.00003   0.00008   0.01783   0.03544  -0.05767
 115        2PZ         0.00000   0.00000   0.00000   0.00000   0.00000
 116        3S          0.00040   0.00647   0.01604   0.02481   0.06692
 117        3PX         0.00046  -0.00011   0.00330   0.01440   0.00615
 118        3PY        -0.00034  -0.00283   0.00480   0.00893  -0.01105
 119        3PZ         0.00000   0.00000   0.00000   0.00000   0.00000
 120        4XX        -0.00005  -0.00014   0.00660   0.01237  -0.00621
 121        4YY         0.00007  -0.00035  -0.00228  -0.00473   0.00444
 122        4ZZ        -0.00005  -0.00013  -0.00573  -0.01121  -0.00321
 123        4XY        -0.00002  -0.00008  -0.00599  -0.01159   0.00164
 124        4XZ         0.00000   0.00000   0.00000   0.00000   0.00000
 125        4YZ         0.00000   0.00000   0.00000   0.00000   0.00000
 126 14  H  1S          0.00001   0.00004   0.00343   0.00617   0.05890
 127        2S         -0.00100   0.00277   0.00095   0.00377   0.01070
 128        3PX         0.00000  -0.00005   0.00000  -0.00004   0.00354
 129        3PY         0.00007  -0.00004   0.00046   0.00069   0.00185
 130        3PZ         0.00001  -0.00023   0.00046   0.00096   0.00507
 131 15  H  1S          0.00001   0.00004   0.00343   0.00617   0.05890
 132        2S         -0.00100   0.00277   0.00095   0.00377   0.01070
 133        3PX         0.00000  -0.00005   0.00000  -0.00004   0.00354
 134        3PY         0.00007  -0.00004   0.00046   0.00069   0.00185
 135        3PZ        -0.00001   0.00023  -0.00046  -0.00096  -0.00507
 136 16  O  1S         -0.00001   0.00004  -0.09223  -0.17963   0.02648
 137        2S         -0.00003   0.00012   0.20160   0.39091  -0.05958
 138        2PX         0.00000  -0.00001   0.04494   0.08721   0.01323
 139        2PY        -0.00002   0.00004   0.02438   0.04748  -0.03906
 140        2PZ         0.00000   0.00000   0.00000   0.00000   0.00000
 141        3S          0.00024  -0.00113   0.19325   0.38368  -0.06565
 142        3PX         0.00008  -0.00024   0.02216   0.04599   0.00609
 143        3PY         0.00008   0.00009   0.00308   0.00508  -0.01365
 144        3PZ         0.00000   0.00000   0.00000   0.00000   0.00000
 145        4XX        -0.00001   0.00010   0.00339   0.00628   0.00302
 146        4YY        -0.00005   0.00022  -0.00085  -0.00233  -0.00076
 147        4ZZ        -0.00001   0.00003  -0.00461  -0.00961   0.00063
 148        4XY         0.00002  -0.00001  -0.00129  -0.00262  -0.00191
 149        4XZ         0.00000   0.00000   0.00000   0.00000   0.00000
 150        4YZ         0.00000   0.00000   0.00000   0.00000   0.00000
 151 17  H  1S         -0.00005  -0.00018   0.01388   0.02663   0.02820
 152        2S         -0.00005  -0.00001   0.00153   0.00243   0.00509
 153        3PX        -0.00002  -0.00001  -0.00144  -0.00307  -0.00092
 154        3PY         0.00003  -0.00007  -0.00072  -0.00129  -0.00164
 155        3PZ         0.00000  -0.00004  -0.00171  -0.00325  -0.00228
 156 18  H  1S         -0.00005  -0.00018   0.01388   0.02663   0.02820
 157        2S         -0.00005  -0.00001   0.00153   0.00243   0.00509
 158        3PX        -0.00002  -0.00001  -0.00144  -0.00307  -0.00092
 159        3PY         0.00003  -0.00007  -0.00072  -0.00129  -0.00164
 160        3PZ         0.00000   0.00004   0.00171   0.00325   0.00228
 161 19  H  1S         -0.00002   0.00001   0.06482   0.12583  -0.03598
 162        2S          0.00004   0.00025   0.00607   0.01258  -0.00779
 163        3PX         0.00001   0.00006   0.00104   0.00196   0.00016
 164        3PY        -0.00001   0.00003  -0.01066  -0.02081   0.00453
 165        3PZ         0.00000   0.00000   0.00000   0.00000   0.00000
                          11        12        13        14        15
                           O         O         O         O         O
     Eigenvalues --    -0.74680  -0.66302  -0.59322  -0.58557  -0.51964
   1 1   O  1S         -0.03948   0.03815  -0.02732   0.01249  -0.02074
   2        2S          0.08913  -0.08574   0.06163  -0.03064   0.04918
   3        2PX         0.06442  -0.08572   0.03639   0.04509  -0.22933
   4        2PY        -0.07159   0.13872  -0.14498   0.01798   0.19540
   5        2PZ         0.00000   0.00000   0.00000   0.00000   0.00000
   6        3S          0.10508  -0.11246   0.08370  -0.03032   0.07412
   7        3PX         0.02357  -0.03487   0.01315   0.02337  -0.11829
   8        3PY        -0.03040   0.06285  -0.07417   0.01788   0.08783
   9        3PZ         0.00000   0.00000   0.00000   0.00000   0.00000
  10        4XX         0.00313  -0.00534   0.00486  -0.00029  -0.01327
  11        4YY        -0.00814   0.01234  -0.01070   0.00186   0.00844
  12        4ZZ        -0.00082   0.00072   0.00008  -0.00113   0.00093
  13        4XY        -0.00044   0.00299  -0.00703   0.00443  -0.00157
  14        4XZ         0.00000   0.00000   0.00000   0.00000   0.00000
  15        4YZ         0.00000   0.00000   0.00000   0.00000   0.00000
  16 2   H  1S          0.06899  -0.09462   0.06834   0.00892  -0.14799
  17        2S          0.01876  -0.03431   0.03074   0.00407  -0.08304
  18        3PX        -0.00781   0.00977  -0.00685  -0.00005   0.00922
  19        3PY         0.00174  -0.00061  -0.00154   0.00109  -0.00021
  20        3PZ         0.00000   0.00000   0.00000   0.00000   0.00000
  21 3   C  1S          0.09165  -0.10915   0.08550  -0.03788   0.01299
  22        2S         -0.18046   0.22161  -0.17757   0.08019  -0.02386
  23        2PX         0.05989  -0.00499  -0.10672   0.09790  -0.10122
  24        2PY        -0.05204   0.00985   0.01389   0.04431  -0.19003
  25        2PZ         0.00000   0.00000   0.00000   0.00000   0.00000
  26        3S         -0.14230   0.19112  -0.16436   0.05524  -0.02495
  27        3PX         0.01262   0.00168  -0.03440   0.03774  -0.04276
  28        3PY        -0.01573   0.00835  -0.00801   0.02253  -0.05813
  29        3PZ         0.00000   0.00000   0.00000   0.00000   0.00000
  30        4XX        -0.00301  -0.00472   0.01273  -0.00863  -0.00403
  31        4YY         0.00947  -0.00820   0.00301  -0.00220   0.01507
  32        4ZZ         0.00539  -0.00470   0.00070   0.00243  -0.00949
  33        4XY         0.00140   0.00403  -0.00526  -0.00020   0.00855
  34        4XZ         0.00000   0.00000   0.00000   0.00000   0.00000
  35        4YZ         0.00000   0.00000   0.00000   0.00000   0.00000
  36 4   C  1S          0.10728   0.00028  -0.09321   0.07617   0.00844
  37        2S         -0.20430  -0.00036   0.18644  -0.15673  -0.01495
  38        2PX        -0.05270   0.07901  -0.07055   0.09123  -0.03136
  39        2PY         0.01748  -0.10140  -0.00240   0.09538  -0.08406
  40        2PZ         0.00000   0.00000   0.00000   0.00000   0.00000
  41        3S         -0.16838   0.00612   0.18241  -0.13075  -0.02444
  42        3PX        -0.00816   0.01876  -0.02020   0.03852  -0.01263
  43        3PY        -0.00140  -0.01833  -0.00444   0.03027  -0.03225
  44        3PZ         0.00000   0.00000   0.00000   0.00000   0.00000
  45        4XX        -0.00065   0.00967  -0.01119   0.00488  -0.00189
  46        4YY         0.00640  -0.00993  -0.00351   0.01072   0.00147
  47        4ZZ         0.00642  -0.00018   0.00008  -0.00258   0.00184
  48        4XY         0.00118  -0.00331   0.00488   0.00173  -0.00427
  49        4XZ         0.00000   0.00000   0.00000   0.00000   0.00000
  50        4YZ         0.00000   0.00000   0.00000   0.00000   0.00000
  51 5   H  1S         -0.05751   0.08082  -0.09041   0.06168  -0.07016
  52        2S         -0.01322   0.02428  -0.03807   0.03130  -0.04384
  53        3PX         0.00333  -0.00340   0.00195  -0.00114   0.00056
  54        3PY         0.00118  -0.00229   0.00250  -0.00058  -0.00121
  55        3PZ         0.00453  -0.00590   0.00594  -0.00370   0.00343
  56 6   H  1S         -0.05751   0.08082  -0.09041   0.06168  -0.07016
  57        2S         -0.01322   0.02428  -0.03807   0.03130  -0.04384
  58        3PX         0.00333  -0.00340   0.00195  -0.00114   0.00056
  59        3PY         0.00118  -0.00229   0.00250  -0.00058  -0.00121
  60        3PZ        -0.00453   0.00590  -0.00594   0.00370  -0.00343
  61 7   C  1S         -0.00005   0.10506   0.00017  -0.09241  -0.00008
  62        2S          0.00009  -0.20260  -0.00035   0.18796   0.00015
  63        2PX        -0.06197   0.00957   0.05963   0.12148  -0.05643
  64        2PY         0.08763   0.00682  -0.08473   0.08565   0.08004
  65        2PZ         0.00000   0.00000   0.00000   0.00000   0.00000
  66        3S          0.00008  -0.20456  -0.00029   0.17034   0.00029
  67        3PX        -0.01022   0.00460   0.01632   0.04499  -0.02395
  68        3PY         0.01445   0.00326  -0.02325   0.03178   0.03388
[...]
 136 16  O  1S          1.99248
 137        2S          0.89051
 138        2PX         0.95397
 139        2PY         0.81168
 140        2PZ         1.15493
 141        3S          0.99371
 142        3PX         0.59901
 143        3PY         0.41423
 144        3PZ         0.77193
 145        4XX        -0.00773
 146        4YY         0.00453
 147        4ZZ        -0.01443
 148        4XY         0.01129
 149        4XZ         0.00273
 150        4YZ         0.00133
 151 17  H  1S          0.54132
 152        2S          0.35920
 153        3PX         0.00401
 154        3PY         0.00164
 155        3PZ         0.00563
 156 18  H  1S          0.54132
 157        2S          0.35920
 158        3PX         0.00401
 159        3PY         0.00164
 160        3PZ         0.00563
 161 19  H  1S          0.49307
 162        2S          0.14211
 163        3PX         0.01218
 164        3PY         0.01622
 165        3PZ         0.01037
          Condensed to atoms (all electrons):
              1          2          3          4          5          6
     1  O    8.174466   0.285574   0.234204  -0.048172  -0.037823  -0.037823
     2  H    0.285574   0.413017  -0.022170   0.005822  -0.003928  -0.003928
     3  C    0.234204  -0.022170   4.726241   0.368412   0.374271   0.374271
     4  C   -0.048172   0.005822   0.368412   4.956206  -0.042493  -0.042493
     5  H   -0.037823  -0.003928   0.374271  -0.042493   0.678285  -0.058306
     6  H   -0.037823  -0.003928   0.374271  -0.042493  -0.058306   0.678285
     7  C    0.002220  -0.000271  -0.032733   0.348726  -0.000838  -0.000838
     8  H    0.003795  -0.000094  -0.037093   0.375880   0.006963  -0.008826
     9  H    0.003795  -0.000094  -0.037093   0.375880  -0.008826   0.006963
    10  C   -0.000035   0.000002   0.002984  -0.029196  -0.000060  -0.000060
    11  H   -0.000010   0.000003  -0.004113  -0.038537   0.005237  -0.000701
    12  H   -0.000010   0.000003  -0.004113  -0.038537  -0.000701   0.005237
    13  C    0.000000   0.000000  -0.000110   0.002984   0.000005   0.000005
    14  H   -0.000001   0.000000   0.000059  -0.004130   0.000002   0.000008
    15  H   -0.000001   0.000000   0.000059  -0.004130   0.000008   0.000002
    16  O    0.000000   0.000000   0.000000  -0.000035   0.000000   0.000000
    17  H    0.000000   0.000000   0.000005  -0.000060  -0.000002   0.000001
    18  H    0.000000   0.000000   0.000005  -0.000060   0.000001  -0.000002
    19  H    0.000000   0.000000   0.000000   0.000002   0.000000   0.000000
              7          8          9         10         11         12
     1  O    0.002220   0.003795   0.003795  -0.000035  -0.000010  -0.000010
     2  H   -0.000271  -0.000094  -0.000094   0.000002   0.000003   0.000003
     3  C   -0.032733  -0.037093  -0.037093   0.002984  -0.004113  -0.004113
     4  C    0.348726   0.375880   0.375880  -0.029196  -0.038537  -0.038537
     5  H   -0.000838   0.006963  -0.008826  -0.000060   0.005237  -0.000701
     6  H   -0.000838  -0.008826   0.006963  -0.000060  -0.000701   0.005237
     7  C    4.925172  -0.034173  -0.034173   0.348726   0.383560   0.383560
     8  H   -0.034173   0.634044  -0.040986  -0.004130   0.005872  -0.005901
     9  H   -0.034173  -0.040986   0.634044  -0.004130  -0.005901   0.005872
    10  C    0.348726  -0.004130  -0.004130   4.956206  -0.038537  -0.038537
    11  H    0.383560   0.005872  -0.005901  -0.038537   0.633881  -0.040857
    12  H    0.383560  -0.005901   0.005872  -0.038537  -0.040857   0.633881
    13  C   -0.032733   0.000059   0.000059   0.368412  -0.004113  -0.004113
    14  H   -0.034173   0.004409  -0.000433   0.375880   0.005872  -0.005901
    15  H   -0.034173  -0.000433   0.004409   0.375880  -0.005901   0.005872
    16  O    0.002220  -0.000001  -0.000001  -0.048172  -0.000010  -0.000010
    17  H   -0.000838   0.000002   0.000008  -0.042493   0.005237  -0.000701
    18  H   -0.000838   0.000008   0.000002  -0.042493  -0.000701   0.005237
    19  H   -0.000271   0.000000   0.000000   0.005822   0.000003   0.000003
             13         14         15         16         17         18
     1  O    0.000000  -0.000001  -0.000001   0.000000   0.000000   0.000000
     2  H    0.000000   0.000000   0.000000   0.000000   0.000000   0.000000
     3  C   -0.000110   0.000059   0.000059   0.000000   0.000005   0.000005
     4  C    0.002984  -0.004130  -0.004130  -0.000035  -0.000060  -0.000060
     5  H    0.000005   0.000002   0.000008   0.000000  -0.000002   0.000001
     6  H    0.000005   0.000008   0.000002   0.000000   0.000001  -0.000002
     7  C   -0.032733  -0.034173  -0.034173   0.002220  -0.000838  -0.000838
     8  H    0.000059   0.004409  -0.000433  -0.000001   0.000002   0.000008
     9  H    0.000059  -0.000433   0.004409  -0.000001   0.000008   0.000002
    10  C    0.368412   0.375880   0.375880  -0.048172  -0.042493  -0.042493
    11  H   -0.004113   0.005872  -0.005901  -0.000010   0.005237  -0.000701
    12  H   -0.004113  -0.005901   0.005872  -0.000010  -0.000701   0.005237
    13  C    4.726241  -0.037093  -0.037093   0.234204   0.374271   0.374271
    14  H   -0.037093   0.634044  -0.040986   0.003795   0.006963  -0.008826
    15  H   -0.037093  -0.040986   0.634044   0.003795  -0.008826   0.006963
    16  O    0.234204   0.003795   0.003795   8.174466  -0.037823  -0.037823
    17  H    0.374271   0.006963  -0.008826  -0.037823   0.678285  -0.058306
    18  H    0.374271  -0.008826   0.006963  -0.037823  -0.058306   0.678285
    19  H   -0.022170  -0.000094  -0.000094   0.285574  -0.003928  -0.003928
             19
     1  O    0.000000
     2  H    0.000000
     3  C    0.000000
     4  C    0.000002
     5  H    0.000000
     6  H    0.000000
     7  C   -0.000271
     8  H    0.000000
     9  H    0.000000
    10  C    0.005822
    11  H    0.000003
    12  H    0.000003
    13  C   -0.022170
    14  H   -0.000094
    15  H   -0.000094
    16  O    0.285574
    17  H   -0.003928
    18  H   -0.003928
    19  H    0.413017
 Mulliken atomic charges:
              1
     1  O   -0.580180
     2  H    0.326065
     3  C    0.056914
     4  C   -0.186068
     5  H    0.088206
     6  H    0.088206
     7  C   -0.188130
     8  H    0.100603
     9  H    0.100603
    10  C   -0.186068
    11  H    0.099716
    12  H    0.099716
    13  C    0.056914
    14  H    0.100603
    15  H    0.100603
    16  O   -0.580180
    17  H    0.088206
    18  H    0.088206
    19  H    0.326065
 Sum of Mulliken atomic charges =   0.00000
 Mulliken charges with hydrogens summed into heavy atoms:
              1
     1  O   -0.254115
     3  C    0.233326
     4  C    0.015138
     7  C    0.011302
    10  C    0.015138
    13  C    0.233326
    16  O   -0.254115
 Sum of Mulliken charges with hydrogens summed into heavy atoms =   0.00000
 Electronic spatial extent (au):  <R**2>=           1572.2732
 Charge=              0.0000 electrons
 Dipole moment (field-independent basis, Debye):
    X=              3.6687    Y=              0.0000    Z=              0.0000  Tot=              3.6687
 Quadrupole moment (field-independent basis, Debye-Ang):
   XX=            -45.9205   YY=            -36.7089   ZZ=            -44.5000
   XY=              0.0000   XZ=              0.0000   YZ=              0.0000
 Traceless Quadrupole moment (field-independent basis, Debye-Ang):
   XX=             -3.5440   YY=              5.6675   ZZ=             -2.1235
   XY=              0.0000   XZ=              0.0000   YZ=              0.0000
 Octapole moment (field-independent basis, Debye-Ang**2):
  XXX=             -1.1117  YYY=              0.0000  ZZZ=              0.0000  XYY=             51.4062
  XXY=              0.0000  XXZ=              0.0000  XZZ=             -0.0331  YZZ=              0.0000
  YYZ=              0.0000  XYZ=              0.0000
 Hexadecapole moment (field-independent basis, Debye-Ang**3):
 XXXX=           -141.5653 YYYY=          -1173.7754 ZZZZ=            -77.3310 XXXY=              0.0000
 XXXZ=              0.0000 YYYX=              0.0000 YYYZ=              0.0000 ZZZX=              0.0000
 ZZZY=              0.0000 XXYY=           -321.7589 XXZZ=            -33.7719 YYZZ=           -300.3701
 XXYZ=              0.0000 YYXZ=              0.0000 ZZXY=              0.0000
 N-N= 3.074880324108D+02 E-N=-1.427426439630D+03  KE= 3.450153300411D+02
 Symmetry A'   KE= 3.258252207358D+02
 Symmetry A"   KE= 1.919010930527D+01
 Orbital energies and kinetic energies (alpha):
                                 1                 2
   1         O               -19.140477         29.029169
   2         O               -19.140477         29.029424
   3         O               -10.225366         15.887929
   4         O               -10.225365         15.887787
   5         O               -10.181826         15.885678
   6         O               -10.177900         15.885092
   7         O               -10.177891         15.885379
   8         O                -1.010097          2.511276
   9         O                -1.010042          2.514588
  10         O                -0.798368          1.383534
  11         O                -0.740130          1.529523
  12         O                -0.659890          1.650788
  13         O                -0.590607          1.544482
  14         O                -0.578721          1.177360
  15         O                -0.508629          1.614061
  16         O                -0.493108          1.696189
  17         O                -0.484165          0.882232
  18         O                -0.457099          1.030079
  19         O                -0.418896          1.554847
  20         O                -0.406788          1.176488
  21         O                -0.398430          1.526075
  22         O                -0.352108          1.233244
  23         O                -0.351497          1.745190
  24         O                -0.349917          1.695617
  25         O                -0.325101          1.519924
  26         O                -0.324241          1.069512
  27         O                -0.314205          1.758697
  28         O                -0.265626          2.122900
  29         O                -0.265291          2.080600
  30         V                 0.083424          1.255792
  31         V                 0.090226          1.165580
  32         V                 0.093249          0.929034
  33         V                 0.123236          0.851793
  34         V                 0.130947          1.263979
  35         V                 0.137213          0.984719
  36         V                 0.170038          0.979990
  37         V                 0.180477          1.245686
  38         V                 0.186683          1.139403
  39         V                 0.198007          2.052036
  40         V                 0.202317          0.983912
  41         V                 0.207169          1.440149
  42         V                 0.207828          1.024399
  43         V                 0.209635          1.088158
  44         V                 0.235880          1.448850
  45         V                 0.251782          1.749216
  46         V                 0.303764          1.964591
  47         V                 0.313561          2.225168
  48         V                 0.485092          1.803478
  49         V                 0.525716          1.935830
  50         V                 0.544415          2.038624
  51         V                 0.557441          1.618862
  52         V                 0.557941          2.274783
  53         V                 0.570896          1.686249
  54         V                 0.618908          2.096754
  55         V                 0.628905          1.940778
  56         V                 0.663066          2.796364
  57         V                 0.663747          2.565369
  58         V                 0.717003          2.326069
  59         V                 0.727589          2.496858
  60         V                 0.728624          2.387582
  61         V                 0.765446          2.327638
  62         V                 0.784368          2.615027
  63         V                 0.791593          2.779697
  64         V                 0.820731          2.474009
  65         V                 0.841609          2.500713
  66         V                 0.848215          2.473435
  67         V                 0.853382          2.615745
  68         V                 0.890762          2.532072
  69         V                 0.896970          2.601190
  70         V                 0.905687          2.570303
  71         V                 0.920071          2.432958
  72         V                 0.944438          2.479439
  73         V                 0.948237          2.365886
  74         V                 0.950460          2.561652
  75         V                 0.966856          2.984899
  76         V                 0.981065          2.882369
  77         V                 0.990911          2.775251
  78         V                 1.025228          2.983120
  79         V                 1.159144          2.340163
  80         V                 1.179407          2.585894
  81         V                 1.198123          2.678793
  82         V                 1.258108          2.582117
  83         V                 1.298814          2.355205
  84         V                 1.352094          2.646777
  85         V                 1.354682          2.419366
  86         V                 1.413885          2.426973
  87         V                 1.426775          2.534363
  88         V                 1.513231          2.610672
  89         V                 1.525456          2.570489
  90         V                 1.559087          2.564285
  91         V                 1.589333          2.570320
  92         V                 1.604616          2.583314
  93         V                 1.639642          2.750683
  94         V                 1.671434          2.657829
  95         V                 1.693003          2.648862
  96         V                 1.705835          2.674364
  97         V                 1.748067          2.950796
  98         V                 1.839047          3.005865
  99         V                 1.864464          3.126210
 100         V                 1.865581          3.308020
 101         V                 1.907768          3.244095
 102         V                 1.911269          3.195667
 103         V                 1.941529          2.990481
 104         V                 1.943566          2.989751
 105         V                 1.965152          3.057193
 106         V                 1.978955          3.374825
 107         V                 2.007490          3.630878
 108         V                 2.070345          3.204135
 109         V                 2.072338          3.162005
 110         V                 2.094143          3.179996
 111         V                 2.117336          3.490316
 112         V                 2.136050          3.260518
 113         V                 2.142839          3.332839
 114         V                 2.230919          3.039900
 115         V                 2.247557          3.466553
 116         V                 2.264205          3.076154
 117         V                 2.303867          3.136945
 118         V                 2.312032          3.147348
 119         V                 2.332924          3.525857
 120         V                 2.351546          3.592464
 121         V                 2.361065          3.626287
 122         V                 2.415514          3.319695
 123         V                 2.418738          3.800202
 124         V                 2.461828          3.641672
 125         V                 2.464435          3.503593
 126         V                 2.570485          3.585356
 127         V                 2.608584          3.711559
 128         V                 2.611051          3.648198
 129         V                 2.653256          3.890788
 130         V                 2.662791          3.785165
 131         V                 2.668315          3.598088
 132         V                 2.671701          3.619358
 133         V                 2.721380          3.879880
 134         V                 2.726809          4.075300
 135         V                 2.738671          3.891627
 136         V                 2.750187          3.897765
 137         V                 2.819111          3.759528
 138         V                 2.848515          3.988573
 139         V                 2.861421          3.972409
 140         V                 2.873442          4.199223
 141         V                 2.887219          4.061331
 142         V                 2.894461          4.015224
 143         V                 2.928895          4.120998
 144         V                 2.947240          4.186323
 145         V                 2.979883          4.214386
 146         V                 3.022876          4.323838
 147         V                 3.226983          4.829966
 148         V                 3.258445          4.834401
 149         V                 3.277918          4.968656
 150         V                 3.303556          4.865746
 151         V                 3.323223          5.198441
 152         V                 3.390020          4.948906
 153         V                 3.394567          5.519974
 154         V                 3.466959          6.152745
 155         V                 3.480816          5.888004
 156         V                 3.499526          5.065751
 157         V                 3.572822          5.165406
 158         V                 3.580654          5.214973
 159         V                 3.923499          9.379652
 160         V                 3.983740          9.575209
 161         V                 4.259978         10.072483
 162         V                 4.380893         10.140810
 163         V                 4.489562         10.183180
 164         V                 4.605480         10.208023
 165         V                 4.750587         10.503163
 Total kinetic energy from orbitals= 3.450153300411D+02
 No NMR shielding tensors so no spin-rotation constants.
 Leave Link  601 at Mon Mar 14 13:48:56 2022, MaxMem=  536870912 cpu:       1.6
 (Enter /opt/gridunesp/dist/gaussian/g09/l9999.exe)

 Test job not archived.
 1\1\GINC-NODE025\FOpt\RB3LYP\6-31G(d,p)\C5H12O2\RHEINHEIMER\14-Mar-202
 2\0\\#P B3LYP/6-31G(d,p) # Opt=tight SCRF=(Solvent=Water) # Gfinput IO
 P(6/7=3) Pop=full Density Test # Units(Ang,Deg)\\peg-4.xyz\\0,1\O,-0.1
 200529689,0.,0.0295723326\H,-0.137420103,0.,0.9958119034\C,1.249366942
 ,0.,-0.3771147792\C,1.2954718552,0.,-1.8994493798\H,1.7749030915,0.886
 1270742,0.0121871888\H,1.7749030915,-0.8861270742,0.0121871888\C,2.725
 0336348,0.,-2.4531056415\H,0.752552946,-0.8805216982,-2.2666208043\H,0
 .752552946,0.8805216982,-2.2666208043\C,2.7705163065,0.,-3.9854611585\
 H,3.2636497408,0.8786908745,-2.0722435261\H,3.2636497408,-0.8786908745
 ,-2.0722435261\C,4.1904229098,0.,-4.5363639046\H,2.243373693,-0.880521
 7082,-4.3749433718\H,2.243373693,0.8805217082,-4.3749433718\O,4.117388
 1893,0.,-5.9630282831\H,4.7326365846,0.8861270899,-4.1706473715\H,4.73
 26365846,-0.8861270899,-4.1706473715\H,5.0225811228,0.,-6.3014753191\\
 Version=EM64L-G09RevA.02\State=1-A'\HF=-348.2117776\RMSD=1.889e-09\RMS
 F=8.035e-07\Dipole=1.1785168,0.,0.8333438\Quadrupole=-0.3520043,-1.578
 7925,1.9307968,0.,-3.2284471,0.\PG=CS [SG(C5H2O2),X(H10)]\\@


 THE WORLD OF CHEMICAL REACTIONS IS LIKE A STAGE,
 ON WHICH SCENE AFTER SCENE IS CEASELESSLY PLAYED.
 THE ACTORS ON IT ARE THE ELEMENTS.
   -- CLEMENS WINKLER   BER. 30,13(1897)
 (DISCOVERER OF GERMANIUM, FEB 6, 1886)
 Job cpu time:  0 days  0 hours 12 minutes 11.3 seconds.
 File lengths (MBytes):  RWF=    159 Int=      0 D2E=      0 Chk=      6 Scr=      2
 Normal termination of Gaussian 09 at Mon Mar 14 13:48:56 2022.
