 Entering Gaussian System, Link 0=g09
 Input=peg-3_opt_g09.com
 Output=peg-3_opt_g09.log
 Initial command:
 /opt/gridunesp/dist/gaussian/g09/l1.exe /store/rheinheimer/2838052/Gau-57078.inp -scrdir=/store/rheinheimer/2838052/
 Entering Link 1 = /opt/gridunesp/dist/gaussian/g09/l1.exe PID=     57080.
  
 Copyright (c) 1988,1990,1992,1993,1995,1998,2003,2009, Gaussian, Inc.
                  All Rights Reserved.
  
 This is part of the Gaussian(R) 09 program.  It is based on
 the Gaussian(R) 03 system (copyright 2003, Gaussian, Inc.),
 the Gaussian(R) 98 system (copyright 1998, Gaussian, Inc.),
 the Gaussian(R) 94 system (copyright 1995, Gaussian, Inc.),
 the Gaussian 92(TM) system (copyright 1992, Gaussian, Inc.),
 the Gaussian 90(TM) system (copyright 1990, Gaussian, Inc.),
 the Gaussian 88(TM) system (copyright 1988, Gaussian, Inc.),
 the Gaussian 86(TM) system (copyright 1986, Carnegie Mellon
 University), and the Gaussian 82(TM) system (copyright 1983,
 Carnegie Mellon University). Gaussian is a federally registered
 trademark of Gaussian, Inc.
  
 This software contains proprietary and confidential information,
 including trade secrets, belonging to Gaussian, Inc.
  
 This software is provided under written license and may be
 used, copied, transmitted, or stored only in accord with that
 written license.
  
 The following legend is applicable only to US Government
 contracts under FAR:
  
                    RESTRICTED RIGHTS LEGEND
  
 Use, reproduction and disclosure by the US Government is
 subject to restrictions as set forth in subparagraphs (a)
 and (c) of the Commercial Computer Software - Restricted
 Rights clause in FAR 52.227-19.
  
 Gaussian, Inc.
 340 Quinnipiac St., Bldg. 40, Wallingford CT 06492
  
  
 ---------------------------------------------------------------
 Warning -- This program may not be used in any manner that
 competes with the business of Gaussian, Inc. or will provide
 assistance to any competitor of Gaussian, Inc.  The licensee
 of this program is prohibited from giving any competitor of
 Gaussian, Inc. access to this program.  By using this program,
 the user acknowledges that Gaussian, Inc. is engaged in the
 business of creating and licensing software in the field of
 computational chemistry and represents and warrants to the
 licensee that it is not a competitor of Gaussian, Inc. and that
 it will not use this program in any manner prohibited above.
 ---------------------------------------------------------------
  

 Cite this work as:
 Gaussian 09, Revision A.02,
 M. J. Frisch, G. W. Trucks, H. B. Schlegel, G. E. Scuseria, 
 M. A. Robb, J. R. Cheeseman, G. Scalmani, V. Barone, B. Mennucci, 
 G. A. Petersson, H. Nakatsuji, M. Caricato, X. Li, H. P. Hratchian, 
 A. F. Izmaylov, J. Bloino, G. Zheng, J. L. Sonnenberg, M. Hada, 
 M. Ehara, K. Toyota, R. Fukuda, J. Hasegawa, M. Ishida, T. Nakajima, 
 Y. Honda, O. Kitao, H. Nakai, T. Vreven, J. A. Montgomery, Jr., 
 J. E. Peralta, F. Ogliaro, M. Bearpark, J. J. Heyd, E. Brothers, 
 K. N. Kudin, V. N. Staroverov, R. Kobayashi, J. Normand, 
 K. Raghavachari, A. Rendell, J. C. Burant, S. S. Iyengar, J. Tomasi, 
 M. Cossi, N. Rega, J. M. Millam, M. Klene, J. E. Knox, J. B. Cross, 
 V. Bakken, C. Adamo, J. Jaramillo, R. Gomperts, R. E. Stratmann, 
 O. Yazyev, A. J. Austin, R. Cammi, C. Pomelli, J. W. Ochterski, 
 R. L. Martin, K. Morokuma, V. G. Zakrzewski, G. A. Voth, 
 P. Salvador, J. J. Dannenberg, S. Dapprich, A. D. Daniels, 
 O. Farkas, J. B. Foresman, J. V. Ortiz, J. Cioslowski, 
 and D. J. Fox, Gaussian, Inc., Wallingford CT, 2009.
 
 ******************************************
 Gaussian 09:  EM64L-G09RevA.02 11-Jun-2009
                14-Mar-2022 
 ******************************************
 %nproc=8
 Will use up to    8 processors via shared memory.
 %Mem=4GB
 ----------------------------------------------------------------------
 #P B3LYP/6-31G(d,p) # Opt=tight SCRF=(Solvent=Water) # Gfinput IOP(6/7
 =3) Pop=full Density Test # Units(Ang,Deg)
 ----------------------------------------------------------------------
 1/7=10,14=-1,18=20,19=15,26=3,38=1/1,3;
 2/9=110,12=2,17=6,18=5,40=1/2;
 3/5=1,6=6,7=101,11=2,16=1,24=10,25=1,30=1,70=2201,71=1,72=1,74=-5/1,2,3;
 4//1;
 5/5=2,38=5,53=1/2;
 6/7=3,22=-1,28=1/1;
 7//1,2,3,16;
 1/7=10,14=-1,18=20,19=15/3(2);
 2/9=110/2;
 99//99;
 2/9=110/2;
 3/5=1,6=6,7=101,11=2,16=1,25=1,30=1,70=2205,71=1,72=1,74=-5/1,2,3;
 4/5=5,16=3/1;
 5/5=2,38=5,53=1/2;
 7//1,2,3,16;
 1/7=10,14=-1,18=20,19=15/3(-5);
 2/9=110/2;
 6/7=3,19=2,22=-1,28=1/1;
 99/9=1/99;
 Leave Link    1 at Mon Mar 14 13:46:20 2022, MaxMem=  536870912 cpu:       0.4
 (Enter /opt/gridunesp/dist/gaussian/g09/l101.exe)
 ---------
 peg-3.xyz
 ---------
 Symbolic Z-matrix:
 Charge =  0 Multiplicity = 1
 O                     0.        0.        0. 
 H                     0.        0.        0.947 
 C                     1.30108   0.       -0.45999 
 C                     1.30108   0.       -1.95999 
 H                     1.80548   0.87365  -0.10333 
 H                     1.80548  -0.87365  -0.10333 
 C                     2.7153    0.       -2.45999 
 H                     0.79668  -0.87365  -2.31666 
 H                     0.79668   0.87365  -2.31666 
 C                     2.7153    0.       -3.95999 
 H                     3.2197    0.87365  -2.10332 
 H                     3.2197   -0.87365  -2.10332 
 O                     4.01638   0.       -4.41998 
 H                     2.2109   -0.87365  -4.31666 
 H                     2.2109    0.87365  -4.31666 
 H                     4.01639   0.       -5.36698 
 
 NAtoms=     16 NQM=     16 NQMF=      0 NMic=      0 NMicF=      0 NTot=     16.
                    Isotopes and Nuclear Properties:
 (Nuclear quadrupole moments (NQMom) in fm**2, nuclear magnetic moments (NMagM)
  in nuclear magnetons)

  Atom         1           2           3           4           5           6           7           8           9          10
 IAtWgt=          16           1          12          12           1           1          12           1           1          12
 AtmWgt=  15.9949146   1.0078250  12.0000000  12.0000000   1.0078250   1.0078250  12.0000000   1.0078250   1.0078250  12.0000000
 NucSpn=           0           1           0           0           1           1           0           1           1           0
 AtZEff=   0.0000000   0.0000000   0.0000000   0.0000000   0.0000000   0.0000000   0.0000000   0.0000000   0.0000000   0.0000000
 NQMom=    0.0000000   0.0000000   0.0000000   0.0000000   0.0000000   0.0000000   0.0000000   0.0000000   0.0000000   0.0000000
 NMagM=    0.0000000   2.7928460   0.0000000   0.0000000   2.7928460   2.7928460   0.0000000   2.7928460   2.7928460   0.0000000

  Atom        11          12          13          14          15          16
 IAtWgt=           1           1          16           1           1           1
 AtmWgt=   1.0078250   1.0078250  15.9949146   1.0078250   1.0078250   1.0078250
 NucSpn=           1           1           0           1           1           1
 AtZEff=   0.0000000   0.0000000   0.0000000   0.0000000   0.0000000   0.0000000
 NQMom=    0.0000000   0.0000000   0.0000000   0.0000000   0.0000000   0.0000000
 NMagM=    2.7928460   2.7928460   0.0000000   2.7928460   2.7928460   2.7928460
 Leave Link  101 at Mon Mar 14 13:46:20 2022, MaxMem=  536870912 cpu:       0.6
 (Enter /opt/gridunesp/dist/gaussian/g09/l103.exe)

 GradGradGradGradGradGradGradGradGradGradGradGradGradGradGradGradGradGrad
 Berny optimization.
 Initialization pass.
                           ----------------------------
                           !    Initial Parameters    !
                           ! (Angstroms and Degrees)  !
 --------------------------                            --------------------------
 ! Name  Definition              Value          Derivative Info.                !
 --------------------------------------------------------------------------------
 ! R1    R(1,2)                  0.947          estimate D2E/DX2                !
 ! R2    R(1,3)                  1.38           estimate D2E/DX2                !
 ! R3    R(3,4)                  1.5            estimate D2E/DX2                !
 ! R4    R(3,5)                  1.07           estimate D2E/DX2                !
 ! R5    R(3,6)                  1.07           estimate D2E/DX2                !
 ! R6    R(4,7)                  1.5            estimate D2E/DX2                !
 ! R7    R(4,8)                  1.07           estimate D2E/DX2                !
 ! R8    R(4,9)                  1.07           estimate D2E/DX2                !
 ! R9    R(7,10)                 1.5            estimate D2E/DX2                !
 ! R10   R(7,11)                 1.07           estimate D2E/DX2                !
 ! R11   R(7,12)                 1.07           estimate D2E/DX2                !
 ! R12   R(10,13)                1.38           estimate D2E/DX2                !
 ! R13   R(10,14)                1.07           estimate D2E/DX2                !
 ! R14   R(10,15)                1.07           estimate D2E/DX2                !
 ! R15   R(13,16)                0.947          estimate D2E/DX2                !
 ! A1    A(2,1,3)              109.4708         estimate D2E/DX2                !
 ! A2    A(1,3,4)              109.4708         estimate D2E/DX2                !
 ! A3    A(1,3,5)              109.4715         estimate D2E/DX2                !
 ! A4    A(1,3,6)              109.4715         estimate D2E/DX2                !
 ! A5    A(4,3,5)              109.4709         estimate D2E/DX2                !
 ! A6    A(4,3,6)              109.4709         estimate D2E/DX2                !
 ! A7    A(5,3,6)              109.4717         estimate D2E/DX2                !
 ! A8    A(3,4,7)              109.4711         estimate D2E/DX2                !
 ! A9    A(3,4,8)              109.4714         estimate D2E/DX2                !
 ! A10   A(3,4,9)              109.4714         estimate D2E/DX2                !
 ! A11   A(7,4,8)              109.4711         estimate D2E/DX2                !
 ! A12   A(7,4,9)              109.4711         estimate D2E/DX2                !
 ! A13   A(8,4,9)              109.4712         estimate D2E/DX2                !
 ! A14   A(4,7,10)             109.4711         estimate D2E/DX2                !
 ! A15   A(4,7,11)             109.4711         estimate D2E/DX2                !
 ! A16   A(4,7,12)             109.4711         estimate D2E/DX2                !
 ! A17   A(10,7,11)            109.4714         estimate D2E/DX2                !
 ! A18   A(10,7,12)            109.4714         estimate D2E/DX2                !
 ! A19   A(11,7,12)            109.4712         estimate D2E/DX2                !
 ! A20   A(7,10,13)            109.4708         estimate D2E/DX2                !
 ! A21   A(7,10,14)            109.4714         estimate D2E/DX2                !
 ! A22   A(7,10,15)            109.4714         estimate D2E/DX2                !
 ! A23   A(13,10,14)           109.4713         estimate D2E/DX2                !
 ! A24   A(13,10,15)           109.4713         estimate D2E/DX2                !
 ! A25   A(14,10,15)           109.4712         estimate D2E/DX2                !
 ! A26   A(10,13,16)           109.4714         estimate D2E/DX2                !
 ! D1    D(2,1,3,4)            180.0            estimate D2E/DX2                !
 ! D2    D(2,1,3,5)            -60.0005         estimate D2E/DX2                !
 ! D3    D(2,1,3,6)             60.0005         estimate D2E/DX2                !
 ! D4    D(1,3,4,7)            180.0            estimate D2E/DX2                !
 ! D5    D(1,3,4,8)            -60.0001         estimate D2E/DX2                !
 ! D6    D(1,3,4,9)             60.0001         estimate D2E/DX2                !
 ! D7    D(5,3,4,7)             60.0001         estimate D2E/DX2                !
 ! D8    D(5,3,4,8)            180.0            estimate D2E/DX2                !
 ! D9    D(5,3,4,9)            -59.9998         estimate D2E/DX2                !
 ! D10   D(6,3,4,7)            -60.0001         estimate D2E/DX2                !
 ! D11   D(6,3,4,8)             59.9998         estimate D2E/DX2                !
 ! D12   D(6,3,4,9)            180.0            estimate D2E/DX2                !
 ! D13   D(3,4,7,10)           180.0            estimate D2E/DX2                !
 ! D14   D(3,4,7,11)           -59.9999         estimate D2E/DX2                !
 ! D15   D(3,4,7,12)            59.9999         estimate D2E/DX2                !
 ! D16   D(8,4,7,10)            59.9999         estimate D2E/DX2                !
 ! D17   D(8,4,7,11)           180.0            estimate D2E/DX2                !
 ! D18   D(8,4,7,12)           -60.0002         estimate D2E/DX2                !
 ! D19   D(9,4,7,10)           -59.9999         estimate D2E/DX2                !
 ! D20   D(9,4,7,11)            60.0002         estimate D2E/DX2                !
 ! D21   D(9,4,7,12)           180.0            estimate D2E/DX2                !
 ! D22   D(4,7,10,13)          180.0            estimate D2E/DX2                !
 ! D23   D(4,7,10,14)          -60.0001         estimate D2E/DX2                !
 ! D24   D(4,7,10,15)           60.0001         estimate D2E/DX2                !
 ! D25   D(11,7,10,13)          60.0001         estimate D2E/DX2                !
 ! D26   D(11,7,10,14)         180.0            estimate D2E/DX2                !
 ! D27   D(11,7,10,15)         -59.9998         estimate D2E/DX2                !
 ! D28   D(12,7,10,13)         -60.0001         estimate D2E/DX2                !
 ! D29   D(12,7,10,14)          59.9998         estimate D2E/DX2                !
 ! D30   D(12,7,10,15)         180.0            estimate D2E/DX2                !
 ! D31   D(7,10,13,16)         180.0            estimate D2E/DX2                !
 ! D32   D(14,10,13,16)         60.0            estimate D2E/DX2                !
 ! D33   D(15,10,13,16)        -60.0            estimate D2E/DX2                !
 --------------------------------------------------------------------------------
 Trust Radius=3.00D-01 FncErr=1.00D-07 GrdErr=1.00D-06
 Number of steps in this run=  84 maximum allowed number of steps= 100.
 GradGradGradGradGradGradGradGradGradGradGradGradGradGradGradGradGradGrad

 Leave Link  103 at Mon Mar 14 13:46:20 2022, MaxMem=  536870912 cpu:       0.0
 (Enter /opt/gridunesp/dist/gaussian/g09/l202.exe)
                          Input orientation:                          
 ---------------------------------------------------------------------
 Center     Atomic      Atomic             Coordinates (Angstroms)
 Number     Number       Type             X           Y           Z
 ---------------------------------------------------------------------
      1          8           0        0.000000    0.000000    0.000000
      2          1           0        0.000000    0.000000    0.947000
      3          6           0        1.301080    0.000000   -0.459990
      4          6           0        1.301080    0.000000   -1.959990
      5          1           0        1.805480    0.873650   -0.103330
      6          1           0        1.805480   -0.873650   -0.103330
      7          6           0        2.715300    0.000000   -2.459990
      8          1           0        0.796680   -0.873650   -2.316660
      9          1           0        0.796680    0.873650   -2.316660
     10          6           0        2.715300    0.000000   -3.959990
     11          1           0        3.219700    0.873650   -2.103320
     12          1           0        3.219700   -0.873650   -2.103320
     13          8           0        4.016380    0.000000   -4.419980
     14          1           0        2.210900   -0.873650   -4.316660
     15          1           0        2.210900    0.873650   -4.316660
     16          1           0        4.016390    0.000000   -5.366980
 ---------------------------------------------------------------------
                    Distance matrix (angstroms):
                    1          2          3          4          5
     1  O    0.000000
     2  H    0.947000   0.000000
     3  C    1.380000   1.916359   0.000000
     4  C    2.352524   3.184870   1.500000   0.000000
     5  H    2.008407   2.264115   1.069995   2.113024   0.000000
     6  H    2.008407   2.264115   1.069995   2.113024   1.747300
     7  C    3.663933   4.356654   2.449493   1.500006   2.672991
     8  H    2.600938   3.471230   2.113033   1.069999   2.994923
     9  H    2.600938   3.471230   2.113033   1.069999   2.432387
    10  C    4.801497   5.608155   3.774920   2.449493   4.057692
    11  H    3.943816   4.520419   2.672995   2.113033   2.449485
    12  H    3.943816   4.520419   2.672995   2.113033   3.008826
    13  O    5.972230   6.703416   4.801497   3.663933   4.927962
    14  H    4.927971   5.775592   4.057701   2.673000   4.579255
    15  H    4.927971   5.775592   4.057701   2.673000   4.232790
    16  H    6.703422   7.483163   5.608160   4.356660   5.775586
                    6          7          8          9         10
     6  H    0.000000
     7  C    2.672991   0.000000
     8  H    2.432387   2.113033   0.000000
     9  H    2.994923   2.113033   1.747300   0.000000
    10  C    4.057692   1.500000   2.672995   2.672995   0.000000
    11  H    3.008826   1.069999   2.994929   2.432394   2.113033
    12  H    2.449485   1.069999   2.432394   2.994929   2.113033
    13  O    4.927962   2.352524   3.943816   3.943816   1.380000
    14  H    4.232790   2.113033   2.449493   3.008833   1.069999
    15  H    4.579255   2.113033   3.008833   2.449493   1.069999
    16  H    5.775586   3.184875   4.520426   4.520426   1.916365
                   11         12         13         14         15
    11  H    0.000000
    12  H    1.747300   0.000000
    13  O    2.600938   2.600938   0.000000
    14  H    2.994930   2.432396   2.008407   0.000000
    15  H    2.432396   2.994930   2.008407   1.747300   0.000000
    16  H    3.471233   3.471233   0.947000   2.264118   2.264118
                   16
    16  H    0.000000
 Stoichiometry    C4H10O2
 Framework group  CS[SG(C4H2O2),X(H8)]
 Deg. of freedom    25
 Full point group                 CS      NOp   2
 Largest Abelian subgroup         CS      NOp   2
 Largest concise Abelian subgroup CS      NOp   2
                         Standard orientation:                         
 ---------------------------------------------------------------------
 Center     Atomic      Atomic             Coordinates (Angstroms)
 Number     Number       Type             X           Y           Z
 ---------------------------------------------------------------------
      1          8           0       -1.414222    2.629992    0.000000
      2          1           0       -2.307065    2.945652    0.000000
      3          6           0       -1.414222    1.249992    0.000000
      4          6           0       -0.000005    0.750003    0.000000
      5          1           0       -1.918615    0.893322    0.873650
      6          1           0       -1.918615    0.893322   -0.873650
      7          6           0        0.000004   -0.750003    0.000000
      8          1           0        0.504397    1.106670   -0.873650
      9          1           0        0.504397    1.106670    0.873650
     10          6           0        1.414222   -1.249992    0.000000
     11          1           0       -0.504398   -1.106669    0.873650
     12          1           0       -0.504398   -1.106669   -0.873650
     13          8           0        1.414222   -2.629992    0.000000
     14          1           0        1.918624   -0.893325   -0.873650
     15          1           0        1.918624   -0.893325    0.873650
     16          1           0        2.307061   -2.945661    0.000000
 ---------------------------------------------------------------------
 Rotational constants (GHZ):     18.1999252      1.2003485      1.1578321
 Leave Link  202 at Mon Mar 14 13:46:20 2022, MaxMem=  536870912 cpu:       0.1
 (Enter /opt/gridunesp/dist/gaussian/g09/l301.exe)
 Standard basis: 6-31G(d,p) (6D, 7F)
 Ernie: Thresh=  0.10000D-02 Tol=  0.10000D-05 Strict=F.
 AO basis set in the form of general basis input (Overlap normalization):
      1 0
 S   6 1.00       0.000000000000
      0.5484671660D+04  0.1831074430D-02
      0.8252349460D+03  0.1395017220D-01
      0.1880469580D+03  0.6844507810D-01
      0.5296450000D+02  0.2327143360D+00
      0.1689757040D+02  0.4701928980D+00
      0.5799635340D+01  0.3585208530D+00
 SP   3 1.00       0.000000000000
      0.1553961625D+02 -0.1107775495D+00  0.7087426823D-01
      0.3599933586D+01 -0.1480262627D+00  0.3397528391D+00
      0.1013761750D+01  0.1130767015D+01  0.7271585773D+00
 SP   1 1.00       0.000000000000
      0.2700058226D+00  0.1000000000D+01  0.1000000000D+01
 D   1 1.00       0.000000000000
      0.8000000000D+00  0.1000000000D+01
 ****
      2 0
 S   3 1.00       0.000000000000
      0.1873113696D+02  0.3349460434D-01
      0.2825394365D+01  0.2347269535D+00
      0.6401216923D+00  0.8137573261D+00
 S   1 1.00       0.000000000000
      0.1612777588D+00  0.1000000000D+01
 P   1 1.00       0.000000000000
      0.1100000000D+01  0.1000000000D+01
 ****
      3 0
 S   6 1.00       0.000000000000
      0.3047524880D+04  0.1834737132D-02
      0.4573695180D+03  0.1403732281D-01
      0.1039486850D+03  0.6884262226D-01
      0.2921015530D+02  0.2321844432D+00
      0.9286662960D+01  0.4679413484D+00
      0.3163926960D+01  0.3623119853D+00
 SP   3 1.00       0.000000000000
      0.7868272350D+01 -0.1193324198D+00  0.6899906659D-01
      0.1881288540D+01 -0.1608541517D+00  0.3164239610D+00
      0.5442492580D+00  0.1143456438D+01  0.7443082909D+00
 SP   1 1.00       0.000000000000
      0.1687144782D+00  0.1000000000D+01  0.1000000000D+01
 D   1 1.00       0.000000000000
      0.8000000000D+00  0.1000000000D+01
 ****
      4 0
 S   6 1.00       0.000000000000
      0.3047524880D+04  0.1834737132D-02
      0.4573695180D+03  0.1403732281D-01
      0.1039486850D+03  0.6884262226D-01
      0.2921015530D+02  0.2321844432D+00
      0.9286662960D+01  0.4679413484D+00
      0.3163926960D+01  0.3623119853D+00
 SP   3 1.00       0.000000000000
      0.7868272350D+01 -0.1193324198D+00  0.6899906659D-01
      0.1881288540D+01 -0.1608541517D+00  0.3164239610D+00
      0.5442492580D+00  0.1143456438D+01  0.7443082909D+00
 SP   1 1.00       0.000000000000
      0.1687144782D+00  0.1000000000D+01  0.1000000000D+01
 D   1 1.00       0.000000000000
      0.8000000000D+00  0.1000000000D+01
 ****
      5 0
 S   3 1.00       0.000000000000
      0.1873113696D+02  0.3349460434D-01
      0.2825394365D+01  0.2347269535D+00
      0.6401216923D+00  0.8137573261D+00
 S   1 1.00       0.000000000000
      0.1612777588D+00  0.1000000000D+01
 P   1 1.00       0.000000000000
      0.1100000000D+01  0.1000000000D+01
 ****
      6 0
 S   3 1.00       0.000000000000
      0.1873113696D+02  0.3349460434D-01
      0.2825394365D+01  0.2347269535D+00
      0.6401216923D+00  0.8137573261D+00
 S   1 1.00       0.000000000000
      0.1612777588D+00  0.1000000000D+01
 P   1 1.00       0.000000000000
      0.1100000000D+01  0.1000000000D+01
 ****
      7 0
 S   6 1.00       0.000000000000
      0.3047524880D+04  0.1834737132D-02
      0.4573695180D+03  0.1403732281D-01
      0.1039486850D+03  0.6884262226D-01
      0.2921015530D+02  0.2321844432D+00
      0.9286662960D+01  0.4679413484D+00
      0.3163926960D+01  0.3623119853D+00
 SP   3 1.00       0.000000000000
      0.7868272350D+01 -0.1193324198D+00  0.6899906659D-01
      0.1881288540D+01 -0.1608541517D+00  0.3164239610D+00
      0.5442492580D+00  0.1143456438D+01  0.7443082909D+00
 SP   1 1.00       0.000000000000
      0.1687144782D+00  0.1000000000D+01  0.1000000000D+01
 D   1 1.00       0.000000000000
      0.8000000000D+00  0.1000000000D+01
 ****
      8 0
 S   3 1.00       0.000000000000
      0.1873113696D+02  0.3349460434D-01
      0.2825394365D+01  0.2347269535D+00
      0.6401216923D+00  0.8137573261D+00
 S   1 1.00       0.000000000000
      0.1612777588D+00  0.1000000000D+01
 P   1 1.00       0.000000000000
      0.1100000000D+01  0.1000000000D+01
 ****
      9 0
 S   3 1.00       0.000000000000
      0.1873113696D+02  0.3349460434D-01
      0.2825394365D+01  0.2347269535D+00
      0.6401216923D+00  0.8137573261D+00
 S   1 1.00       0.000000000000
      0.1612777588D+00  0.1000000000D+01
 P   1 1.00       0.000000000000
      0.1100000000D+01  0.1000000000D+01
 ****
     10 0
 S   6 1.00       0.000000000000
      0.3047524880D+04  0.1834737132D-02
      0.4573695180D+03  0.1403732281D-01
      0.1039486850D+03  0.6884262226D-01
      0.2921015530D+02  0.2321844432D+00
      0.9286662960D+01  0.4679413484D+00
      0.3163926960D+01  0.3623119853D+00
 SP   3 1.00       0.000000000000
      0.7868272350D+01 -0.1193324198D+00  0.6899906659D-01
      0.1881288540D+01 -0.1608541517D+00  0.3164239610D+00
      0.5442492580D+00  0.1143456438D+01  0.7443082909D+00
 SP   1 1.00       0.000000000000
      0.1687144782D+00  0.1000000000D+01  0.1000000000D+01
 D   1 1.00       0.000000000000
      0.8000000000D+00  0.1000000000D+01
 ****
     11 0
 S   3 1.00       0.000000000000
      0.1873113696D+02  0.3349460434D-01
      0.2825394365D+01  0.2347269535D+00
      0.6401216923D+00  0.8137573261D+00
 S   1 1.00       0.000000000000
      0.1612777588D+00  0.1000000000D+01
 P   1 1.00       0.000000000000
      0.1100000000D+01  0.1000000000D+01
 ****
     12 0
 S   3 1.00       0.000000000000
      0.1873113696D+02  0.3349460434D-01
      0.2825394365D+01  0.2347269535D+00
      0.6401216923D+00  0.8137573261D+00
 S   1 1.00       0.000000000000
      0.1612777588D+00  0.1000000000D+01
 P   1 1.00       0.000000000000
      0.1100000000D+01  0.1000000000D+01
 ****
     13 0
 S   6 1.00       0.000000000000
      0.5484671660D+04  0.1831074430D-02
      0.8252349460D+03  0.1395017220D-01
      0.1880469580D+03  0.6844507810D-01
      0.5296450000D+02  0.2327143360D+00
      0.1689757040D+02  0.4701928980D+00
      0.5799635340D+01  0.3585208530D+00
 SP   3 1.00       0.000000000000
      0.1553961625D+02 -0.1107775495D+00  0.7087426823D-01
      0.3599933586D+01 -0.1480262627D+00  0.3397528391D+00
      0.1013761750D+01  0.1130767015D+01  0.7271585773D+00
 SP   1 1.00       0.000000000000
      0.2700058226D+00  0.1000000000D+01  0.1000000000D+01
 D   1 1.00       0.000000000000
      0.8000000000D+00  0.1000000000D+01
 ****
     14 0
 S   3 1.00       0.000000000000
      0.1873113696D+02  0.3349460434D-01
      0.2825394365D+01  0.2347269535D+00
      0.6401216923D+00  0.8137573261D+00
 S   1 1.00       0.000000000000
      0.1612777588D+00  0.1000000000D+01
 P   1 1.00       0.000000000000
      0.1100000000D+01  0.1000000000D+01
 ****
     15 0
 S   3 1.00       0.000000000000
      0.1873113696D+02  0.3349460434D-01
      0.2825394365D+01  0.2347269535D+00
      0.6401216923D+00  0.8137573261D+00
 S   1 1.00       0.000000000000
      0.1612777588D+00  0.1000000000D+01
 P   1 1.00       0.000000000000
      0.1100000000D+01  0.1000000000D+01
 ****
     16 0
 S   3 1.00       0.000000000000
      0.1873113696D+02  0.3349460434D-01
      0.2825394365D+01  0.2347269535D+00
      0.6401216923D+00  0.8137573261D+00
 S   1 1.00       0.000000000000
      0.1612777588D+00  0.1000000000D+01
 P   1 1.00       0.000000000000
      0.1100000000D+01  0.1000000000D+01
 ****

 There are    94 symmetry adapted basis functions of A'  symmetry.
 There are    46 symmetry adapted basis functions of A"  symmetry.
 Integral buffers will be    131072 words long.
 Raffenetti 2 integral format.
 Two-electron integral symmetry is turned on.
   140 basis functions,   238 primitive gaussians,   140 cartesian basis functions
    25 alpha electrons       25 beta electrons
       nuclear repulsion energy       250.4762231734 Hartrees.
 IExCor=  402 DFT=T Ex+Corr=B3LYP ExCW=0 ScaHFX=  0.200000
 ScaDFX=  0.800000  0.720000  1.000000  0.810000 ScalE2=  1.000000  1.000000
 IRadAn=      0 IRanWt=     -1 IRanGd=            0 ICorTp=0
 NAtoms=   16 NActive=   16 NUniq=   12 SFac= 1.33D+00 NAtFMM=   80 NAOKFM=F Big=F
 ------------------------------------------------------------------------------
 Polarizable Continuum Model (PCM)
 =================================
 Model                : PCM.
 Atomic radii         : UFF (Universal Force Field).
 Polarization charges : Total charges.
 Charge compensation  : None.
 Solution method      : Matrix inversion.
 Cavity type          : Scaled VdW (van der Waals Surface) (Alpha=1.100).
 Cavity algorithm     : GePol (No added spheres)
                        Default sphere list used, NSphG=   16.
                        Lebedev-Laikov grids with approx.  5.0 points / Ang**2.
                        Smoothing algorithm: Karplus/York (Gamma=1.0000).
                        Polarization charges: spherical gaussians, with
                                              point-specific exponents (IZeta= 3).
                        Self-potential: point-specific (ISelfS= 7).
                        Self-field    : sphere-specific E.n sum rule (ISelfD= 2).
 1st derivatives      : Analytical E(r).r(x)/FMM algorithm (CHGder, D1EAlg=3).
                        Cavity 1st derivative terms included.
 Solvent              : Water, Eps=  78.355300 Eps(inf)=   1.777849
 ------------------------------------------------------------------------------
 Spheres list:
 ISph  on   Nord    Re0     Alpha      Xe            Ye            Ze
    1   O      1    1.750   1.100     -1.414222      2.629992      0.000000
    2   H      2    1.443   1.100     -2.307065      2.945652      0.000000
    3   C      3    1.926   1.100     -1.414222      1.249992      0.000000
    4   C      4    1.926   1.100     -0.000005      0.750003      0.000000
    5   H      5    1.443   1.100     -1.918615      0.893322      0.873650
    6   H      6    1.443   1.100     -1.918615      0.893322     -0.873650
    7   C      7    1.926   1.100      0.000004     -0.750003      0.000000
    8   H      8    1.443   1.100      0.504397      1.106670     -0.873650
    9   H      9    1.443   1.100      0.504397      1.106670      0.873650
   10   C     10    1.926   1.100      1.414222     -1.249992      0.000000
   11   H     11    1.443   1.100     -0.504398     -1.106669      0.873650
   12   H     12    1.443   1.100     -0.504398     -1.106669     -0.873650
   13   O     13    1.750   1.100      1.414222     -2.629992      0.000000
   14   H     14    1.443   1.100      1.918624     -0.893325     -0.873650
   15   H     15    1.443   1.100      1.918624     -0.893325      0.873650
   16   H     16    1.443   1.100      2.307061     -2.945661      0.000000
 ------------------------------------------------------------------------------
 GePol: Number of generator spheres                  =      16
 GePol: Total number of spheres                      =      16
 GePol: Number of exposed spheres                    =      16 (100.00%)
 GePol: Number of points                             =    1286
 GePol: Average weight of points                     =       0.13
 GePol: Minimum weight of points                     =   0.45D-07
 GePol: Maximum weight of points                     =    0.20299
 GePol: Number of points with low weight             =      70
 GePol: Fraction of low-weight points (<1% of avg)   =       5.44%
 GePol: Cavity surface area                          =    165.249 Ang**2
 GePol: Cavity volume                                =    151.645 Ang**3
 Leave Link  301 at Mon Mar 14 13:46:20 2022, MaxMem=  536870912 cpu:       0.4
 (Enter /opt/gridunesp/dist/gaussian/g09/l302.exe)
 NPDir=0 NMtPBC=     1 NCelOv=     1 NCel=       1 NClECP=     1 NCelD=      1
         NCelK=      1 NCelE2=     1 NClLst=     1 CellRange=     0.0.
 One-electron integrals computed using PRISM.
 One-electron integral symmetry used in STVInt
 NBasis=   140 RedAO= T  NBF=    94    46
 NBsUse=   140 1.00D-06 NBFU=    94    46
 Precomputing XC quadrature grid using
 IXCGrd= 2 IRadAn=           0 IRanWt=          -1 IRanGd=           0 AccXCQ= 1.00D-10.
 NRdTot=    1006 NPtTot=      127328 NUsed=      134591 NTot=      134623
 NSgBfM=   140   140   140   140   140 NAtAll=    16    16.
 Leave Link  302 at Mon Mar 14 13:46:20 2022, MaxMem=  536870912 cpu:       1.1
 (Enter /opt/gridunesp/dist/gaussian/g09/l303.exe)
 DipDrv:  MaxL=1.
 Leave Link  303 at Mon Mar 14 13:46:20 2022, MaxMem=  536870912 cpu:       0.3
 (Enter /opt/gridunesp/dist/gaussian/g09/l401.exe)
 Harris functional with IExCor=  402 diagonalized for initial guess.
 ExpMin= 1.61D-01 ExpMax= 5.48D+03 ExpMxC= 8.25D+02 IAcc=1 IRadAn=         1 AccDes= 0.00D+00
 HarFok:  IExCor=  402 AccDes= 0.00D+00 IRadAn=         1 IDoV= 1
 ScaDFX=  1.000000  1.000000  1.000000  1.000000
 FoFCou: FMM=F IPFlag=           0 FMFlag=      100000 FMFlg1=           0
         NFxFlg=           0 DoJE=T BraDBF=F KetDBF=T FulRan=T
         Omega=  0.000000  0.000000  1.000000  0.000000  0.000000 ICntrl=     500 IOpCl=  0
         NMat0=    1 NMatS0=    1 NMatT0=    0 NMatD0=    1 NMtDS0=    0 NMtDT0=    0
         I1Cent=           4 NGrid=           0.
 Petite list used in FoFCou.
 Harris En= -308.968099689610    
 Initial guess orbital symmetries:
       Occupied  (A') (A') (A') (A') (A') (A') (A') (A') (A') (A')
                 (A') (A') (A') (A') (A") (A") (A') (A') (A") (A')
                 (A") (A') (A') (A") (A")
       Virtual   (A') (A') (A') (A") (A') (A') (A') (A') (A") (A')
                 (A") (A") (A') (A') (A') (A') (A') (A') (A") (A")
                 (A') (A') (A') (A") (A') (A') (A") (A') (A') (A")
                 (A') (A") (A") (A') (A') (A") (A') (A') (A') (A')
                 (A") (A') (A") (A') (A") (A') (A') (A') (A') (A')
                 (A') (A") (A") (A") (A") (A") (A') (A') (A') (A')
                 (A') (A') (A") (A") (A') (A') (A") (A") (A") (A')
                 (A") (A') (A") (A") (A') (A") (A') (A') (A') (A")
                 (A") (A') (A') (A') (A') (A") (A") (A') (A") (A')
                 (A') (A') (A") (A') (A") (A') (A') (A') (A') (A')
                 (A') (A") (A') (A') (A") (A') (A') (A") (A") (A')
                 (A') (A') (A') (A') (A')
 The electronic state of the initial guess is 1-A'.
 Leave Link  401 at Mon Mar 14 13:46:21 2022, MaxMem=  536870912 cpu:       1.6
 (Enter /opt/gridunesp/dist/gaussian/g09/l502.exe)
 Closed shell SCF:
 Requested convergence on RMS density matrix=1.00D-08 within 128 cycles.
 Requested convergence on MAX density matrix=1.00D-06.
 Requested convergence on             energy=1.00D-06.
 No special actions if energy rises.
 Using DIIS extrapolation, IDIIS=  1040.
 Integral symmetry usage will be decided dynamically.
       134434 words used for storage of precomputed grid.
 Keep R1 ints in memory in canonical form, NReq=53840094.
 IEnd=      213760 IEndB=      213760 NGot=   536870912 MDV=   487980120
 LenX=   487980120 LenY=   487960079
 Symmetry not used in FoFDir.
 MinBra= 0 MaxBra= 2 Meth= 1.
 IRaf=       0 NMat=   1 IRICut=       1 DoRegI=T DoRafI=F ISym2E= 0 JSym2E=0.

 Cycle   1  Pass 1  IDiag  1:
 E= -308.654221650946    
 DIIS: error= 4.71D-02 at cycle   1 NSaved=   1.
 NSaved= 1 IEnMin= 1 EnMin= -308.654221650946     IErMin= 1 ErrMin= 4.71D-02
 ErrMax= 4.71D-02 EMaxC= 1.00D-01 BMatC= 2.43D-01 BMatP= 2.43D-01
 IDIUse=3 WtCom= 5.29D-01 WtEn= 4.71D-01
 Coeff-Com:  0.100D+01
 Coeff-En:   0.100D+01
 Coeff:      0.100D+01
 Gap=     0.314 Goal=   None    Shift=    0.000
 GapD=    0.314 DampG=1.000 DampE=0.500 DampFc=0.5000 IDamp=-1.
 Damping current iteration by 5.00D-01
 RMSDP=7.52D-03 MaxDP=1.37D-01              OVMax= 1.78D-01

 Cycle   2  Pass 1  IDiag  1:
 E= -308.755087500226     Delta-E=       -0.100865849280 Rises=F Damp=T
 DIIS: error= 8.20D-03 at cycle   2 NSaved=   2.
 NSaved= 2 IEnMin= 2 EnMin= -308.755087500226     IErMin= 2 ErrMin= 8.20D-03
 ErrMax= 8.20D-03 EMaxC= 1.00D-01 BMatC= 9.88D-03 BMatP= 2.43D-01
 IDIUse=3 WtCom= 9.18D-01 WtEn= 8.20D-02
 Coeff-Com:  0.908D-01 0.909D+00
 Coeff-En:   0.130D+00 0.870D+00
 Coeff:      0.941D-01 0.906D+00
 Gap=     0.353 Goal=   None    Shift=    0.000
 RMSDP=9.46D-04 MaxDP=1.25D-02 DE=-1.01D-01 OVMax= 8.55D-02

 Cycle   3  Pass 1  IDiag  1:
 E= -308.881731556304     Delta-E=       -0.126644056078 Rises=F Damp=F
 DIIS: error= 3.04D-03 at cycle   3 NSaved=   3.
 NSaved= 3 IEnMin= 3 EnMin= -308.881731556304     IErMin= 3 ErrMin= 3.04D-03
 ErrMax= 3.04D-03 EMaxC= 1.00D-01 BMatC= 1.74D-03 BMatP= 9.88D-03
 IDIUse=3 WtCom= 9.70D-01 WtEn= 3.04D-02
 Coeff-Com:  0.776D-02 0.251D+00 0.741D+00
 Coeff-En:   0.000D+00 0.000D+00 0.100D+01
 Coeff:      0.753D-02 0.244D+00 0.749D+00
 Gap=     0.348 Goal=   None    Shift=    0.000
 RMSDP=3.90D-04 MaxDP=8.73D-03 DE=-1.27D-01 OVMax= 1.09D-02

 Cycle   4  Pass 1  IDiag  1:
 E= -308.882419038149     Delta-E=       -0.000687481844 Rises=F Damp=F
 DIIS: error= 2.02D-03 at cycle   4 NSaved=   4.
 NSaved= 4 IEnMin= 4 EnMin= -308.882419038149     IErMin= 4 ErrMin= 2.02D-03
 ErrMax= 2.02D-03 EMaxC= 1.00D-01 BMatC= 8.39D-04 BMatP= 1.74D-03
 IDIUse=3 WtCom= 9.80D-01 WtEn= 2.02D-02
 Coeff-Com: -0.158D-02 0.473D-01 0.417D+00 0.537D+00
 Coeff-En:   0.000D+00 0.000D+00 0.338D+00 0.662D+00
 Coeff:     -0.155D-02 0.464D-01 0.416D+00 0.540D+00
 Gap=     0.350 Goal=   None    Shift=    0.000
 RMSDP=1.82D-04 MaxDP=3.82D-03 DE=-6.87D-04 OVMax= 4.60D-03

 Cycle   5  Pass 1  IDiag  1:
 E= -308.883094602888     Delta-E=       -0.000675564739 Rises=F Damp=F
 DIIS: error= 2.05D-04 at cycle   5 NSaved=   5.
 NSaved= 5 IEnMin= 5 EnMin= -308.883094602888     IErMin= 5 ErrMin= 2.05D-04
 ErrMax= 2.05D-04 EMaxC= 1.00D-01 BMatC= 7.54D-06 BMatP= 8.39D-04
 IDIUse=3 WtCom= 9.98D-01 WtEn= 2.05D-03
 Coeff-Com: -0.361D-03 0.102D-02 0.815D-01 0.152D+00 0.766D+00
 Coeff-En:   0.000D+00 0.000D+00 0.000D+00 0.000D+00 0.100D+01
 Coeff:     -0.360D-03 0.102D-02 0.813D-01 0.152D+00 0.766D+00
 Gap=     0.350 Goal=   None    Shift=    0.000
 RMSDP=2.09D-05 MaxDP=4.41D-04 DE=-6.76D-04 OVMax= 5.57D-04

 Cycle   6  Pass 1  IDiag  1:
 E= -308.883100489900     Delta-E=       -0.000005887012 Rises=F Damp=F
 DIIS: error= 6.81D-05 at cycle   6 NSaved=   6.
 NSaved= 6 IEnMin= 6 EnMin= -308.883100489900     IErMin= 6 ErrMin= 6.81D-05
 ErrMax= 6.81D-05 EMaxC= 1.00D-01 BMatC= 7.78D-07 BMatP= 7.54D-06
 IDIUse=1 WtCom= 1.00D+00 WtEn= 0.00D+00
 Coeff-Com: -0.120D-03-0.770D-03 0.309D-01 0.634D-01 0.379D+00 0.528D+00
 Coeff:     -0.120D-03-0.770D-03 0.309D-01 0.634D-01 0.379D+00 0.528D+00
 Gap=     0.350 Goal=   None    Shift=    0.000
 RMSDP=5.56D-06 MaxDP=1.61D-04 DE=-5.89D-06 OVMax= 1.79D-04

 Cycle   7  Pass 1  IDiag  1:
 E= -308.883101192285     Delta-E=       -0.000000702385 Rises=F Damp=F
 DIIS: error= 8.88D-06 at cycle   7 NSaved=   7.
 NSaved= 7 IEnMin= 7 EnMin= -308.883101192285     IErMin= 7 ErrMin= 8.88D-06
 ErrMax= 8.88D-06 EMaxC= 1.00D-01 BMatC= 9.29D-09 BMatP= 7.78D-07
 IDIUse=1 WtCom= 1.00D+00 WtEn= 0.00D+00
 Coeff-Com:  0.281D-04-0.281D-03 0.136D-02 0.430D-02 0.361D-01 0.119D+00
 Coeff-Com:  0.839D+00
 Coeff:      0.281D-04-0.281D-03 0.136D-02 0.430D-02 0.361D-01 0.119D+00
 Coeff:      0.839D+00
 Gap=     0.350 Goal=   None    Shift=    0.000
 RMSDP=6.69D-07 MaxDP=1.19D-05 DE=-7.02D-07 OVMax= 2.25D-05

 Cycle   8  Pass 1  IDiag  1:
 E= -308.883101200643     Delta-E=       -0.000000008358 Rises=F Damp=F
 DIIS: error= 1.33D-06 at cycle   8 NSaved=   8.
 NSaved= 8 IEnMin= 8 EnMin= -308.883101200643     IErMin= 8 ErrMin= 1.33D-06
 ErrMax= 1.33D-06 EMaxC= 1.00D-01 BMatC= 2.56D-10 BMatP= 9.29D-09
 IDIUse=1 WtCom= 1.00D+00 WtEn= 0.00D+00
 Coeff-Com:  0.108D-04-0.372D-04-0.672D-03-0.921D-03-0.379D-02 0.913D-02
 Coeff-Com:  0.193D+00 0.803D+00
 Coeff:      0.108D-04-0.372D-04-0.672D-03-0.921D-03-0.379D-02 0.913D-02
 Coeff:      0.193D+00 0.803D+00
 Gap=     0.350 Goal=   None    Shift=    0.000
 RMSDP=1.12D-07 MaxDP=1.77D-06 DE=-8.36D-09 OVMax= 3.29D-06

 Cycle   9  Pass 1  IDiag  1:
 E= -308.883101200860     Delta-E=       -0.000000000217 Rises=F Damp=F
 DIIS: error= 1.52D-07 at cycle   9 NSaved=   9.
 NSaved= 9 IEnMin= 9 EnMin= -308.883101200860     IErMin= 9 ErrMin= 1.52D-07
 ErrMax= 1.52D-07 EMaxC= 1.00D-01 BMatC= 2.60D-12 BMatP= 2.56D-10
 IDIUse=1 WtCom= 1.00D+00 WtEn= 0.00D+00
 Coeff-Com:  0.286D-06 0.578D-06-0.113D-03-0.163D-03-0.103D-02-0.641D-03
 Coeff-Com:  0.151D-01 0.106D+00 0.881D+00
 Coeff:      0.286D-06 0.578D-06-0.113D-03-0.163D-03-0.103D-02-0.641D-03
 Coeff:      0.151D-01 0.106D+00 0.881D+00
 Gap=     0.350 Goal=   None    Shift=    0.000
 RMSDP=1.40D-08 MaxDP=2.09D-07 DE=-2.17D-10 OVMax= 3.79D-07

 Cycle  10  Pass 1  IDiag  1:
 E= -308.883101200863     Delta-E=       -0.000000000003 Rises=F Damp=F
 DIIS: error= 1.66D-08 at cycle  10 NSaved=  10.
 NSaved=10 IEnMin=10 EnMin= -308.883101200863     IErMin=10 ErrMin= 1.66D-08
 ErrMax= 1.66D-08 EMaxC= 1.00D-01 BMatC= 3.68D-14 BMatP= 2.60D-12
 IDIUse=1 WtCom= 1.00D+00 WtEn= 0.00D+00
 Coeff-Com: -0.253D-06 0.817D-06-0.349D-05-0.555D-05-0.731D-04-0.220D-03
 Coeff-Com: -0.126D-02-0.639D-03 0.125D+00 0.877D+00
 Coeff:     -0.253D-06 0.817D-06-0.349D-05-0.555D-05-0.731D-04-0.220D-03
 Coeff:     -0.126D-02-0.639D-03 0.125D+00 0.877D+00
 Gap=     0.350 Goal=   None    Shift=    0.000
 RMSDP=1.72D-09 MaxDP=2.89D-08 DE=-2.84D-12 OVMax= 4.05D-08

 Error on total polarization charges =  0.00615
 SCF Done:  E(RB3LYP) =  -308.883101201     A.U. after   10 cycles
             Convg  =    0.1718D-08             -V/T =  2.0066
 KE= 3.068451218951D+02 PE=-1.223140286366D+03 EE= 3.569358400971D+02
 Leave Link  502 at Mon Mar 14 13:46:27 2022, MaxMem=  536870912 cpu:      51.5
 (Enter /opt/gridunesp/dist/gaussian/g09/l601.exe)
 Copying SCF densities to generalized density rwf, IOpCl= 0 IROHF=0.

 **********************************************************************

            Population analysis using the SCF density.

 **********************************************************************

 Orbital symmetries:
       Occupied  (A') (A') (A') (A') (A') (A') (A') (A') (A') (A')
                 (A') (A') (A') (A') (A") (A") (A') (A") (A') (A')
                 (A") (A') (A') (A") (A")
       Virtual   (A') (A') (A') (A") (A') (A') (A') (A") (A") (A')
                 (A") (A') (A') (A') (A') (A') (A') (A') (A") (A")
                 (A') (A') (A') (A") (A') (A') (A') (A") (A') (A")
                 (A') (A") (A") (A') (A') (A") (A') (A') (A') (A')
                 (A") (A') (A") (A') (A") (A') (A') (A') (A') (A')
                 (A") (A') (A") (A") (A') (A") (A") (A') (A') (A')
                 (A') (A') (A") (A") (A') (A') (A") (A") (A") (A')
                 (A") (A") (A') (A") (A") (A') (A') (A') (A') (A")
                 (A") (A') (A') (A') (A") (A') (A") (A') (A") (A')
                 (A') (A') (A") (A') (A') (A") (A') (A') (A') (A')
                 (A') (A') (A") (A') (A") (A') (A') (A") (A") (A')
                 (A') (A') (A') (A') (A')
 The electronic state is 1-A'.
 Alpha  occ. eigenvalues --  -19.13404 -19.13404 -10.21273 -10.21273 -10.16710
 Alpha  occ. eigenvalues --  -10.16684  -1.02607  -1.02560  -0.80310  -0.71340
 Alpha  occ. eigenvalues --   -0.61950  -0.58727  -0.51972  -0.50205  -0.49911
 Alpha  occ. eigenvalues --   -0.45800  -0.43031  -0.39125  -0.37713  -0.35440
 Alpha  occ. eigenvalues --   -0.33826  -0.32593  -0.31072  -0.26470  -0.25995
 Alpha virt. eigenvalues --    0.08976   0.09385   0.10587   0.13403   0.14998
 Alpha virt. eigenvalues --    0.17352   0.19369   0.20024   0.21286   0.22286
 Alpha virt. eigenvalues --    0.22452   0.22710   0.25732   0.30515   0.33494
 Alpha virt. eigenvalues --    0.49116   0.53580   0.56982   0.57046   0.58601
 Alpha virt. eigenvalues --    0.60639   0.67276   0.68187   0.69073   0.69338
 Alpha virt. eigenvalues --    0.74011   0.79211   0.79274   0.82467   0.83076
 Alpha virt. eigenvalues --    0.87052   0.87277   0.90722   0.91711   0.94133
 Alpha virt. eigenvalues --    0.96086   0.96091   0.97287   0.98825   1.00332
 Alpha virt. eigenvalues --    1.01668   1.14073   1.15369   1.23855   1.30568
 Alpha virt. eigenvalues --    1.31908   1.38039   1.38564   1.47056   1.47199
 Alpha virt. eigenvalues --    1.57791   1.58897   1.59496   1.62053   1.66540
 Alpha virt. eigenvalues --    1.69751   1.69910   1.86950   1.88948   1.90389
 Alpha virt. eigenvalues --    1.91783   1.94710   1.99022   1.99148   2.01900
 Alpha virt. eigenvalues --    2.07861   2.10286   2.10321   2.15292   2.15843
 Alpha virt. eigenvalues --    2.16020   2.27207   2.27804   2.31374   2.33733
 Alpha virt. eigenvalues --    2.35142   2.36937   2.38628   2.43757   2.44949
 Alpha virt. eigenvalues --    2.54946   2.57667   2.63495   2.68327   2.69216
 Alpha virt. eigenvalues --    2.69879   2.71106   2.75153   2.77491   2.78397
 Alpha virt. eigenvalues --    2.83693   2.88921   2.90515   2.91249   2.96488
 Alpha virt. eigenvalues --    2.96886   2.99424   3.05071   3.07551   3.29971
 Alpha virt. eigenvalues --    3.33323   3.35430   3.35992   3.43012   3.49352
 Alpha virt. eigenvalues --    3.51288   3.55038   3.60963   3.63987   3.97498
 Alpha virt. eigenvalues --    4.05662   4.30377   4.44086   4.57261   4.76515
     Molecular Orbital Coefficients:
                           1         2         3         4         5
                           O         O         O         O         O
     Eigenvalues --   -19.13404 -19.13404 -10.21273 -10.21273 -10.16710
   1 1   O  1S          0.83651   0.53461   0.00008  -0.00010  -0.00002
   2        2S          0.02188   0.01404   0.00012  -0.00017  -0.00011
   3        2PX        -0.00084  -0.00053  -0.00001   0.00001  -0.00004
   4        2PY        -0.00036  -0.00024  -0.00007   0.00010   0.00005
   5        2PZ         0.00000   0.00000   0.00000   0.00000   0.00000
   6        3S          0.01029   0.00630  -0.00141   0.00172   0.00020
   7        3PX         0.00014  -0.00002  -0.00021   0.00025   0.00026
   8        3PY        -0.00053  -0.00021  -0.00001  -0.00004  -0.00023
   9        3PZ         0.00000   0.00000   0.00000   0.00000   0.00000
  10        4XX        -0.00667  -0.00420   0.00012  -0.00018  -0.00003
  11        4YY        -0.00683  -0.00434   0.00054  -0.00066   0.00000
  12        4ZZ        -0.00682  -0.00430  -0.00003   0.00000  -0.00012
  13        4XY        -0.00008  -0.00004   0.00003  -0.00001  -0.00005
  14        4XZ         0.00000   0.00000   0.00000   0.00000   0.00000
  15        4YZ         0.00000   0.00000   0.00000   0.00000   0.00000
  16 2   H  1S          0.00021   0.00010  -0.00006   0.00010   0.00006
  17        2S         -0.00103  -0.00069   0.00001   0.00020   0.00026
  18        3PX        -0.00019  -0.00014  -0.00003   0.00006   0.00001
  19        3PY         0.00014   0.00009   0.00008  -0.00014  -0.00003
  20        3PZ         0.00000   0.00000   0.00000   0.00000   0.00000
  21 3   C  1S          0.00002   0.00001  -0.63609   0.76254  -0.00212
  22        2S          0.00032   0.00019  -0.03220   0.03815  -0.00042
  23        2PX         0.00003   0.00003   0.00004  -0.00002  -0.00010
  24        2PY         0.00029   0.00019  -0.00040   0.00050   0.00002
  25        2PZ         0.00000   0.00000   0.00000   0.00000   0.00000
  26        3S         -0.00216  -0.00115   0.01335  -0.01267   0.00373
  27        3PX        -0.00058  -0.00031   0.00184  -0.00085   0.00134
  28        3PY        -0.00085  -0.00052  -0.00136   0.00054  -0.00096
  29        3PZ         0.00000   0.00000   0.00000   0.00000   0.00000
  30        4XX         0.00003   0.00002   0.00578  -0.00698  -0.00031
  31        4YY         0.00013   0.00010   0.00548  -0.00669  -0.00011
  32        4ZZ         0.00007   0.00006   0.00557  -0.00684  -0.00013
  33        4XY         0.00005   0.00003  -0.00009   0.00002   0.00002
  34        4XZ         0.00000   0.00000   0.00000   0.00000   0.00000
  35        4YZ         0.00000   0.00000   0.00000   0.00000   0.00000
  36 4   C  1S         -0.00004   0.00001  -0.00181   0.00206   0.70167
  37        2S         -0.00016   0.00011   0.00002  -0.00024   0.03571
  38        2PX        -0.00003  -0.00001  -0.00020   0.00003   0.00008
  39        2PY         0.00007   0.00006   0.00008  -0.00001   0.00005
  40        2PZ         0.00000   0.00000   0.00000   0.00000   0.00000
  41        3S          0.00239  -0.00030  -0.00389   0.00386  -0.01105
  42        3PX        -0.00027  -0.00030   0.00309  -0.00119   0.00072
  43        3PY        -0.00115   0.00018  -0.00088   0.00062  -0.00098
  44        3PZ         0.00000   0.00000   0.00000   0.00000   0.00000
  45        4XX        -0.00007   0.00002   0.00017  -0.00027  -0.00645
  46        4YY        -0.00004  -0.00004   0.00013  -0.00017  -0.00668
  47        4ZZ        -0.00007   0.00002   0.00009  -0.00019  -0.00627
  48        4XY         0.00002   0.00004  -0.00002   0.00001   0.00004
  49        4XZ         0.00000   0.00000   0.00000   0.00000   0.00000
  50        4YZ         0.00000   0.00000   0.00000   0.00000   0.00000
  51 5   H  1S          0.00001  -0.00001  -0.00007  -0.00006  -0.00011
  52        2S         -0.00002  -0.00002  -0.00196   0.00224  -0.00024
  53        3PX        -0.00001   0.00000  -0.00002   0.00001   0.00004
  54        3PY        -0.00004  -0.00003   0.00008  -0.00006   0.00003
  55        3PZ         0.00006   0.00004  -0.00007   0.00007  -0.00002
  56 6   H  1S          0.00001  -0.00001  -0.00007  -0.00006  -0.00011
  57        2S         -0.00002  -0.00002  -0.00196   0.00224  -0.00024
  58        3PX        -0.00001   0.00000  -0.00002   0.00001   0.00004
  59        3PY        -0.00004  -0.00003   0.00008  -0.00006   0.00003
  60        3PZ        -0.00006  -0.00004   0.00007  -0.00007   0.00002
  61 7   C  1S          0.00005  -0.00001   0.00215   0.00170   0.70246
  62        2S          0.00019   0.00004  -0.00007  -0.00023   0.03575
  63        2PX        -0.00002   0.00002  -0.00020   0.00001  -0.00008
  64        2PY         0.00004  -0.00008   0.00009  -0.00001  -0.00005
  65        2PZ         0.00000   0.00000   0.00000   0.00000   0.00000
  66        3S         -0.00230   0.00073   0.00452   0.00310  -0.01107
  67        3PX        -0.00012   0.00039   0.00325   0.00061  -0.00072
  68        3PY        -0.00112   0.00032  -0.00098  -0.00045   0.00098
  69        3PZ         0.00000   0.00000   0.00000   0.00000   0.00000
  70        4XX         0.00007  -0.00001  -0.00022  -0.00024  -0.00646
  71        4YY         0.00002  -0.00005  -0.00016  -0.00015  -0.00669
  72        4ZZ         0.00007  -0.00001  -0.00012  -0.00017  -0.00628
  73        4XY         0.00000   0.00004   0.00002   0.00001   0.00004
  74        4XZ         0.00000   0.00000   0.00000   0.00000   0.00000
  75        4YZ         0.00000   0.00000   0.00000   0.00000   0.00000
  76 8   H  1S         -0.00002   0.00006   0.00005  -0.00014  -0.00010
  77        2S          0.00000   0.00002  -0.00049  -0.00012   0.00218
  78        3PX        -0.00002   0.00000  -0.00002  -0.00008   0.00003
  79        3PY         0.00006   0.00002   0.00005   0.00002  -0.00002
  80        3PZ         0.00002   0.00000  -0.00007   0.00003  -0.00011
  81 9   H  1S         -0.00002   0.00006   0.00005  -0.00014  -0.00010
  82        2S          0.00000   0.00002  -0.00049  -0.00012   0.00218
  83        3PX        -0.00002   0.00000  -0.00002  -0.00008   0.00003
  84        3PY         0.00006   0.00002   0.00005   0.00002  -0.00002
  85        3PZ        -0.00002   0.00000   0.00007  -0.00003   0.00011
  86 10  C  1S         -0.00001   0.00002   0.76261   0.63599  -0.00212
  87        2S         -0.00021   0.00031   0.03853   0.03175  -0.00042
  88        2PX         0.00001  -0.00004   0.00005   0.00002   0.00010
  89        2PY         0.00019  -0.00030  -0.00048  -0.00042  -0.00002
  90        2PZ         0.00000   0.00000   0.00000   0.00000   0.00000
  91        3S          0.00148  -0.00195  -0.01541  -0.01007   0.00373
  92        3PX        -0.00040   0.00053   0.00197   0.00051  -0.00135
  93        3PY        -0.00055   0.00083  -0.00143  -0.00029   0.00096
  94        3PZ         0.00000   0.00000   0.00000   0.00000   0.00000
  95        4XX        -0.00002   0.00003  -0.00694  -0.00583  -0.00031
  96        4YY        -0.00007   0.00015  -0.00659  -0.00559  -0.00011
  97        4ZZ        -0.00004   0.00008  -0.00671  -0.00573  -0.00013
  98        4XY        -0.00003   0.00005   0.00009   0.00000   0.00002
  99        4XZ         0.00000   0.00000   0.00000   0.00000   0.00000
 100        4YZ         0.00000   0.00000   0.00000   0.00000   0.00000
 101 11  H  1S          0.00004   0.00004  -0.00008  -0.00013  -0.00010
 102        2S          0.00000   0.00002   0.00046  -0.00021   0.00218
 103        3PX        -0.00002   0.00001  -0.00001   0.00009  -0.00003
 104        3PY         0.00005  -0.00005   0.00005  -0.00002   0.00002
 105        3PZ         0.00002  -0.00001  -0.00007  -0.00001   0.00011
 106 12  H  1S          0.00004   0.00004  -0.00008  -0.00013  -0.00010
 107        2S          0.00000   0.00002   0.00046  -0.00021   0.00218
 108        3PX        -0.00002   0.00001  -0.00001   0.00009  -0.00003
 109        3PY         0.00005  -0.00005   0.00005  -0.00002   0.00002
 110        3PZ        -0.00002   0.00001   0.00007   0.00001  -0.00011
 111 13  O  1S         -0.53459   0.83652  -0.00010  -0.00009  -0.00002
 112        2S         -0.01395   0.02193  -0.00015  -0.00015  -0.00011
 113        2PX        -0.00054   0.00083  -0.00002  -0.00001   0.00004
 114        2PY        -0.00023   0.00037  -0.00009  -0.00009  -0.00005
 115        2PZ         0.00000   0.00000   0.00000   0.00000   0.00000
 116        3S         -0.00670   0.01004   0.00169   0.00144   0.00020
 117        3PX         0.00014  -0.00004  -0.00025  -0.00021  -0.00026
 118        3PY        -0.00039   0.00041   0.00000   0.00004   0.00023
 119        3PZ         0.00000   0.00000   0.00000   0.00000   0.00000
 120        4XX         0.00429  -0.00662  -0.00015  -0.00015  -0.00003
 121        4YY         0.00437  -0.00680  -0.00065  -0.00055   0.00000
 122        4ZZ         0.00438  -0.00677   0.00003  -0.00001  -0.00012
 123        4XY         0.00005  -0.00007  -0.00003  -0.00001  -0.00005
 124        4XZ         0.00000   0.00000   0.00000   0.00000   0.00000
 125        4YZ         0.00000   0.00000   0.00000   0.00000   0.00000
 126 14  H  1S         -0.00001   0.00000   0.00006  -0.00007  -0.00011
 127        2S          0.00001  -0.00002   0.00233   0.00185  -0.00024
 128        3PX         0.00000   0.00000  -0.00002  -0.00001  -0.00004
 129        3PY        -0.00003   0.00005   0.00009   0.00004  -0.00003
 130        3PZ         0.00004  -0.00006  -0.00008  -0.00005   0.00002
 131 15  H  1S         -0.00001   0.00000   0.00006  -0.00007  -0.00011
 132        2S          0.00001  -0.00002   0.00233   0.00185  -0.00024
 133        3PX         0.00000   0.00000  -0.00002  -0.00001  -0.00004
 134        3PY        -0.00003   0.00005   0.00009   0.00004  -0.00003
 135        3PZ        -0.00004   0.00006   0.00008   0.00005  -0.00002
 136 16  H  1S         -0.00015   0.00018   0.00008   0.00009   0.00006
 137        2S          0.00065  -0.00106   0.00003   0.00019   0.00026
 138        3PX        -0.00012   0.00021  -0.00004  -0.00005  -0.00001
 139        3PY         0.00009  -0.00014   0.00011   0.00012   0.00003
 140        3PZ         0.00000   0.00000   0.00000   0.00000   0.00000
                           6         7         8         9        10
                           O         O         O         O         O
     Eigenvalues --   -10.16684  -1.02607  -1.02560  -0.80310  -0.71340
   1 1   O  1S          0.00007  -0.14255   0.14291   0.03404   0.04401
   2        2S          0.00026   0.31050  -0.31146  -0.07643  -0.09957
   3        2PX        -0.00001  -0.05836   0.05889   0.04365   0.08273
   4        2PY        -0.00001  -0.05305   0.05288  -0.03660  -0.10685
   5        2PZ         0.00000   0.00000   0.00000   0.00000   0.00000
   6        3S         -0.00166   0.30416  -0.30265  -0.08619  -0.12122
   7        3PX        -0.00020  -0.01674   0.01524   0.01471   0.03197
   8        3PY         0.00053  -0.03283   0.03240  -0.01447  -0.04691
   9        3PZ         0.00000   0.00000   0.00000   0.00000   0.00000
  10        4XX         0.00029  -0.00204   0.00211  -0.00179  -0.00451
  11        4YY         0.00016   0.00548  -0.00542   0.00504   0.01094
  12        4ZZ         0.00014  -0.00748   0.00755   0.00088   0.00076
  13        4XY        -0.00003   0.00088  -0.00082  -0.00011   0.00127
  14        4XZ         0.00000   0.00000   0.00000   0.00000   0.00000
  15        4YZ         0.00000   0.00000   0.00000   0.00000   0.00000
  16 2   H  1S         -0.00003   0.09953  -0.10046  -0.04802  -0.08848
  17        2S          0.00009   0.00967  -0.00992  -0.01085  -0.02687
  18        3PX        -0.00007   0.01497  -0.01513  -0.00574  -0.00964
  19        3PY        -0.00003  -0.00696   0.00703   0.00172   0.00160
  20        3PZ         0.00000   0.00000   0.00000   0.00000   0.00000
  21 3   C  1S         -0.00215  -0.05742   0.05664  -0.06482  -0.11238
  22        2S         -0.00029   0.10938  -0.10811   0.12560   0.22402
  23        2PX        -0.00003  -0.00154   0.00252   0.05900   0.05081
  24        2PY         0.00000   0.07776  -0.07847  -0.05459  -0.04338
  25        2PZ         0.00000   0.00000   0.00000   0.00000   0.00000
  26        3S          0.00498   0.01998  -0.02264   0.09275   0.18326
  27        3PX         0.00228  -0.01115   0.00878   0.01145   0.01034
  28        3PY        -0.00011  -0.00952   0.00470  -0.01194  -0.01643
  29        3PZ         0.00000   0.00000   0.00000   0.00000   0.00000
  30        4XX        -0.00022  -0.00724   0.00718   0.00502   0.00044
  31        4YY        -0.00006   0.01337  -0.01349  -0.00765  -0.01064
  32        4ZZ        -0.00004  -0.00893   0.00891  -0.00424  -0.00602
  33        4XY         0.00002  -0.00234   0.00210  -0.00309   0.00067
  34        4XZ         0.00000   0.00000   0.00000   0.00000   0.00000
  35        4YZ         0.00000   0.00000   0.00000   0.00000   0.00000
  36 4   C  1S          0.70268  -0.01460   0.01039  -0.13247  -0.07507
  37        2S          0.03632   0.02613  -0.01483   0.24874   0.14397
  38        2PX        -0.00001  -0.01241   0.01451  -0.02059  -0.07652
  39        2PY        -0.00011   0.00669  -0.01275  -0.05093   0.07063
  40        2PZ         0.00000   0.00000   0.00000   0.00000   0.00000
  41        3S         -0.02033   0.02405  -0.03713   0.18583   0.13344
  42        3PX         0.00142  -0.01508   0.00646  -0.00156  -0.01449
  43        3PY         0.00304   0.00646   0.00881  -0.01157   0.00652
  44        3PZ         0.00000   0.00000   0.00000   0.00000   0.00000
  45        4XX        -0.00622   0.00245  -0.00220  -0.00410   0.00497
  46        4YY        -0.00613   0.00058  -0.00011   0.00150  -0.01083
  47        4ZZ        -0.00602  -0.00138   0.00150  -0.00931  -0.00403
  48        4XY         0.00016  -0.00229   0.00255  -0.00170  -0.00161
  49        4XZ         0.00000   0.00000   0.00000   0.00000   0.00000
  50        4YZ         0.00000   0.00000   0.00000   0.00000   0.00000
  51 5   H  1S         -0.00013   0.02136  -0.02115   0.03813   0.07448
  52        2S          0.00021   0.00151  -0.00246   0.00717   0.01885
  53        3PX         0.00005   0.00181  -0.00177   0.00247   0.00389
  54        3PY        -0.00005   0.00198  -0.00183   0.00048   0.00183
  55        3PZ        -0.00004  -0.00258   0.00263  -0.00308  -0.00572
  56 6   H  1S         -0.00013   0.02136  -0.02115   0.03813   0.07448
  57        2S          0.00021   0.00151  -0.00246   0.00717   0.01885
  58        3PX         0.00005   0.00181  -0.00177   0.00247   0.00389
  59        3PY        -0.00005   0.00198  -0.00183   0.00048   0.00183
  60        3PZ         0.00004   0.00258  -0.00263   0.00308   0.00572
  61 7   C  1S         -0.70188  -0.01459  -0.01041  -0.13247   0.07507
  62        2S         -0.03628   0.02611   0.01486   0.24874  -0.14397
  63        2PX        -0.00001   0.01239   0.01453   0.02059  -0.07652
  64        2PY        -0.00011  -0.00668  -0.01276   0.05093   0.07063
  65        2PZ         0.00000   0.00000   0.00000   0.00000   0.00000
  66        3S          0.02032   0.02400   0.03716   0.18582  -0.13344
  67        3PX         0.00142   0.01507   0.00648   0.00156  -0.01449
  68        3PY         0.00304  -0.00647   0.00880   0.01157   0.00652
  69        3PZ         0.00000   0.00000   0.00000   0.00000   0.00000
  70        4XX         0.00622   0.00244   0.00220  -0.00410  -0.00497
  71        4YY         0.00612   0.00058   0.00011   0.00150   0.01083
  72        4ZZ         0.00601  -0.00138  -0.00150  -0.00931   0.00403
  73        4XY        -0.00016  -0.00229  -0.00255  -0.00170   0.00161
  74        4XZ         0.00000   0.00000   0.00000   0.00000   0.00000
  75        4YZ         0.00000   0.00000   0.00000   0.00000   0.00000
  76 8   H  1S          0.00012   0.00665  -0.00345   0.07329   0.04591
  77        2S          0.00193   0.00238  -0.00284   0.01341   0.01072
  78        3PX         0.00006  -0.00041   0.00069  -0.00376  -0.00334
  79        3PY         0.00006   0.00002  -0.00041  -0.00321  -0.00020
  80        3PZ        -0.00020   0.00079  -0.00071   0.00625   0.00367
  81 9   H  1S          0.00012   0.00665  -0.00345   0.07329   0.04591
  82        2S          0.00193   0.00238  -0.00284   0.01341   0.01072
  83        3PX         0.00006  -0.00041   0.00069  -0.00376  -0.00334
  84        3PY         0.00006   0.00002  -0.00041  -0.00321  -0.00020
  85        3PZ         0.00020  -0.00079   0.00071  -0.00625  -0.00367
  86 10  C  1S          0.00214  -0.05735  -0.05670  -0.06482   0.11238
  87        2S          0.00029   0.10926   0.10824   0.12560  -0.22402
  88        2PX        -0.00003   0.00154   0.00252  -0.05900   0.05081
  89        2PY         0.00000  -0.07767  -0.07856   0.05459  -0.04338
  90        2PZ         0.00000   0.00000   0.00000   0.00000   0.00000
  91        3S         -0.00497   0.01995   0.02266   0.09275  -0.18326
  92        3PX         0.00228   0.01114   0.00880  -0.01145   0.01034
  93        3PY        -0.00011   0.00951   0.00471   0.01194  -0.01643
  94        3PZ         0.00000   0.00000   0.00000   0.00000   0.00000
  95        4XX         0.00022  -0.00723  -0.00719   0.00502  -0.00044
  96        4YY         0.00006   0.01336   0.01351  -0.00765   0.01064
  97        4ZZ         0.00004  -0.00892  -0.00892  -0.00424   0.00602
  98        4XY        -0.00002  -0.00234  -0.00211  -0.00309  -0.00067
  99        4XZ         0.00000   0.00000   0.00000   0.00000   0.00000
 100        4YZ         0.00000   0.00000   0.00000   0.00000   0.00000
 101 11  H  1S         -0.00012   0.00664   0.00346   0.07329  -0.04591
 102        2S         -0.00193   0.00238   0.00284   0.01341  -0.01072
 103        3PX         0.00006   0.00041   0.00069   0.00376  -0.00334
 104        3PY         0.00006  -0.00002  -0.00041   0.00321  -0.00020
 105        3PZ        -0.00020  -0.00079  -0.00071  -0.00625   0.00367
 106 12  H  1S         -0.00012   0.00664   0.00346   0.07329  -0.04591
 107        2S         -0.00193   0.00238   0.00284   0.01341  -0.01072
 108        3PX         0.00006   0.00041   0.00069   0.00376  -0.00334
 109        3PY         0.00006  -0.00002  -0.00041   0.00321  -0.00020
 110        3PZ         0.00020   0.00079   0.00071   0.00625  -0.00367
 111 13  O  1S         -0.00007  -0.14239  -0.14308   0.03403  -0.04401
 112        2S         -0.00026   0.31013   0.31182  -0.07643   0.09957
 113        2PX        -0.00001   0.05829   0.05896  -0.04365   0.08273
 114        2PY        -0.00001   0.05299   0.05294   0.03660  -0.10685
 115        2PZ         0.00000   0.00000   0.00000   0.00000   0.00000
 116        3S          0.00167   0.30381   0.30301  -0.08619   0.12122
 117        3PX        -0.00020   0.01672   0.01526  -0.01471   0.03197
 118        3PY         0.00053   0.03279   0.03244   0.01447  -0.04691
 119        3PZ         0.00000   0.00000   0.00000   0.00000   0.00000
 120        4XX        -0.00029  -0.00204  -0.00211  -0.00179   0.00451
 121        4YY        -0.00016   0.00547   0.00543   0.00504  -0.01094
 122        4ZZ        -0.00014  -0.00747  -0.00756   0.00088  -0.00076
 123        4XY         0.00003   0.00088   0.00082  -0.00011  -0.00127
 124        4XZ         0.00000   0.00000   0.00000   0.00000   0.00000
 125        4YZ         0.00000   0.00000   0.00000   0.00000   0.00000
 126 14  H  1S          0.00013   0.02134   0.02117   0.03813  -0.07448
 127        2S         -0.00021   0.00151   0.00246   0.00717  -0.01885
 128        3PX         0.00005  -0.00181  -0.00177  -0.00247   0.00389
 129        3PY        -0.00005  -0.00198  -0.00183  -0.00048   0.00183
 130        3PZ        -0.00004   0.00257   0.00263   0.00308  -0.00572
 131 15  H  1S          0.00013   0.02134   0.02117   0.03813  -0.07448
 132        2S         -0.00021   0.00151   0.00246   0.00717  -0.01885
 133        3PX         0.00005  -0.00181  -0.00177  -0.00247   0.00389
 134        3PY        -0.00005  -0.00198  -0.00183  -0.00048   0.00183
 135        3PZ         0.00004  -0.00257  -0.00263  -0.00308   0.00572
 136 16  H  1S          0.00003   0.09941   0.10057  -0.04802   0.08848
 137        2S         -0.00009   0.00966   0.00993  -0.01085   0.02687
 138        3PX        -0.00007  -0.01495  -0.01515   0.00574  -0.00964
 139        3PY        -0.00003   0.00695   0.00704  -0.00172   0.00160
 140        3PZ         0.00000   0.00000   0.00000   0.00000   0.00000
                          11        12        13        14        15
                           O         O         O         O         O
     Eigenvalues --    -0.61950  -0.58727  -0.51972  -0.50205  -0.49911
   1 1   O  1S          0.03457  -0.01780  -0.02614   0.02077   0.00000
   2        2S         -0.07729   0.04246   0.06007  -0.04960   0.00000
   3        2PX         0.07917   0.03969   0.22931  -0.22994   0.00000
   4        2PY        -0.17354   0.04596  -0.15464   0.24106   0.00000
   5        2PZ         0.00000   0.00000   0.00000   0.00000   0.10012
   6        3S         -0.10653   0.04716   0.09658  -0.07959   0.00000
   7        3PX         0.03244   0.02172   0.11956  -0.11736   0.00000
   8        3PY        -0.08285   0.03206  -0.06735   0.11566   0.00000
   9        3PZ         0.00000   0.00000   0.00000   0.00000   0.06010
  10        4XX        -0.00626   0.00113  -0.01274   0.01506   0.00000
  11        4YY         0.01361  -0.00393   0.00608  -0.01016   0.00000
  12        4ZZ         0.00051   0.00109   0.00066  -0.00073   0.00000
  13        4XY         0.00581  -0.00591  -0.00411  -0.00200   0.00000
  14        4XZ         0.00000   0.00000   0.00000   0.00000  -0.00299
  15        4YZ         0.00000   0.00000   0.00000   0.00000  -0.00705
  16 2   H  1S         -0.09880   0.00355  -0.13519   0.16165   0.00000
  17        2S         -0.04112   0.00182  -0.07551   0.09538   0.00000
  18        3PX        -0.00977   0.00123  -0.00791   0.00998   0.00000
  19        3PY        -0.00070   0.00144   0.00113   0.00111   0.00000
  20        3PZ         0.00000   0.00000   0.00000   0.00000   0.00317
  21 3   C  1S         -0.10660   0.05441   0.02508  -0.00620   0.00000
  22        2S          0.21984  -0.11476  -0.04852   0.00993   0.00000
  23        2PX        -0.06110   0.12153   0.14286  -0.03847   0.00000
  24        2PY         0.01988   0.04222   0.17254  -0.20726   0.00000
  25        2PZ         0.00000   0.00000   0.00000   0.00000   0.20813
  26        3S          0.20059  -0.08733  -0.06075   0.00565   0.00000
  27        3PX        -0.01990   0.04564   0.05427  -0.02751   0.00000
  28        3PY        -0.00420   0.02368   0.05268  -0.05524   0.00000
  29        3PZ         0.00000   0.00000   0.00000   0.00000   0.07178
  30        4XX        -0.01071   0.01130  -0.00112   0.01019   0.00000
  31        4YY        -0.00529   0.00265   0.01456  -0.01934   0.00000
  32        4ZZ        -0.00304  -0.00243  -0.00980   0.00934   0.00000
  33        4XY         0.00650  -0.00077   0.00732  -0.00840   0.00000
  34        4XZ         0.00000   0.00000   0.00000   0.00000  -0.00136
  35        4YZ         0.00000   0.00000   0.00000   0.00000  -0.00345
  36 4   C  1S          0.06756  -0.09568  -0.00754  -0.04438   0.00000
  37        2S         -0.13260   0.19569   0.01716   0.08651   0.00000
  38        2PX        -0.07501   0.10550   0.01035  -0.01442   0.00000
  39        2PY         0.07463   0.10078   0.09548   0.02545   0.00000
  40        2PZ         0.00000   0.00000   0.00000   0.00000   0.23000
  41        3S         -0.13158   0.17222   0.01690   0.13403   0.00000
  42        3PX        -0.02033   0.04324  -0.00239  -0.01489   0.00000
  43        3PY         0.01730   0.03108   0.04137  -0.00621   0.00000
  44        3PZ         0.00000   0.00000   0.00000   0.00000   0.09297
  45        4XX         0.01281  -0.00700  -0.00345   0.00136   0.00000
  46        4YY        -0.00394  -0.01183   0.00079  -0.00931   0.00000
  47        4ZZ         0.00117   0.00270   0.00163   0.00078   0.00000
  48        4XY        -0.00560  -0.00077  -0.00174   0.00476   0.00000
  49        4XZ         0.00000   0.00000   0.00000   0.00000   0.00248
  50        4YZ         0.00000   0.00000   0.00000   0.00000   0.00073
  51 5   H  1S          0.09289  -0.08006  -0.08743   0.05322   0.09202
  52        2S          0.03346  -0.03894  -0.05226   0.03341   0.06805
  53        3PX         0.00278  -0.00151  -0.00043   0.00075   0.00354
  54        3PY         0.00286  -0.00105   0.00053  -0.00180   0.00163
  55        3PZ        -0.00642   0.00489   0.00450  -0.00228  -0.00096
  56 6   H  1S          0.09289  -0.08006  -0.08743   0.05322  -0.09202
  57        2S          0.03346  -0.03894  -0.05226   0.03341  -0.06805
  58        3PX         0.00278  -0.00151  -0.00043   0.00075  -0.00354
  59        3PY         0.00286  -0.00105   0.00053  -0.00180  -0.00163
  60        3PZ         0.00642  -0.00489  -0.00450   0.00228  -0.00096
  61 7   C  1S          0.06756   0.09568  -0.00754   0.04438   0.00000
  62        2S         -0.13260  -0.19569   0.01716  -0.08651   0.00000
  63        2PX         0.07501   0.10550  -0.01035  -0.01442   0.00000
  64        2PY        -0.07462   0.10078  -0.09548   0.02545   0.00000
  65        2PZ         0.00000   0.00000   0.00000   0.00000   0.23000
  66        3S         -0.13158  -0.17221   0.01690  -0.13403   0.00000
  67        3PX         0.02033   0.04324   0.00239  -0.01489   0.00000
  68        3PY        -0.01730   0.03108  -0.04137  -0.00621   0.00000
  69        3PZ         0.00000   0.00000   0.00000   0.00000   0.09297
  70        4XX         0.01281   0.00700  -0.00345  -0.00136   0.00000
  71        4YY        -0.00394   0.01183   0.00079   0.00931   0.00000
  72        4ZZ         0.00117  -0.00270   0.00163  -0.00078   0.00000
  73        4XY        -0.00560   0.00077  -0.00174  -0.00476   0.00000
  74        4XZ         0.00000   0.00000   0.00000   0.00000  -0.00248
  75        4YZ         0.00000   0.00000   0.00000   0.00000  -0.00073
  76 8   H  1S         -0.05615   0.11985   0.02498   0.03993  -0.10393
  77        2S         -0.02085   0.05761   0.01600   0.01701  -0.07000
  78        3PX         0.00133  -0.00289  -0.00149  -0.00102   0.00345
  79        3PY         0.00268  -0.00192   0.00170  -0.00081   0.00284
  80        3PZ        -0.00394   0.00754   0.00159   0.00242  -0.00110
  81 9   H  1S         -0.05615   0.11985   0.02498   0.03993   0.10393
  82        2S         -0.02085   0.05761   0.01600   0.01701   0.07000
  83        3PX         0.00133  -0.00289  -0.00149  -0.00102  -0.00345
  84        3PY         0.00268  -0.00192   0.00170  -0.00081  -0.00284
  85        3PZ         0.00394  -0.00754  -0.00159  -0.00242  -0.00110
  86 10  C  1S         -0.10660  -0.05441   0.02508   0.00620   0.00000
  87        2S          0.21984   0.11476  -0.04852  -0.00993   0.00000
  88        2PX         0.06110   0.12153  -0.14286  -0.03847   0.00000
  89        2PY        -0.01989   0.04222  -0.17254  -0.20726   0.00000
  90        2PZ         0.00000   0.00000   0.00000   0.00000   0.20813
  91        3S          0.20059   0.08733  -0.06076  -0.00565   0.00000
  92        3PX         0.01990   0.04564  -0.05427  -0.02751   0.00000
  93        3PY         0.00420   0.02368  -0.05268  -0.05524   0.00000
  94        3PZ         0.00000   0.00000   0.00000   0.00000   0.07178
  95        4XX        -0.01071  -0.01130  -0.00112  -0.01019   0.00000
  96        4YY        -0.00529  -0.00265   0.01456   0.01934   0.00000
  97        4ZZ        -0.00304   0.00243  -0.00980  -0.00934   0.00000
  98        4XY         0.00650   0.00077   0.00732   0.00840   0.00000
  99        4XZ         0.00000   0.00000   0.00000   0.00000   0.00136
 100        4YZ         0.00000   0.00000   0.00000   0.00000   0.00345
 101 11  H  1S         -0.05615  -0.11985   0.02498  -0.03993   0.10393
 102        2S         -0.02085  -0.05761   0.01600  -0.01701   0.07000
 103        3PX        -0.00133  -0.00289   0.00149  -0.00102   0.00345
 104        3PY        -0.00268  -0.00192  -0.00170  -0.00081   0.00284
 105        3PZ         0.00394   0.00754  -0.00159   0.00242  -0.00110
 106 12  H  1S         -0.05615  -0.11985   0.02498  -0.03993  -0.10393
 107        2S         -0.02085  -0.05761   0.01600  -0.01701  -0.07000
 108        3PX        -0.00133  -0.00289   0.00149  -0.00102  -0.00345
 109        3PY        -0.00268  -0.00192  -0.00170  -0.00081  -0.00284
 110        3PZ        -0.00394  -0.00754   0.00159  -0.00242  -0.00110
 111 13  O  1S          0.03457   0.01780  -0.02614  -0.02077   0.00000
 112        2S         -0.07729  -0.04245   0.06007   0.04960   0.00000
 113        2PX        -0.07917   0.03969  -0.22931  -0.22994   0.00000
 114        2PY         0.17354   0.04596   0.15464   0.24106   0.00000
 115        2PZ         0.00000   0.00000   0.00000   0.00000   0.10012
 116        3S         -0.10653  -0.04716   0.09658   0.07959   0.00000
 117        3PX        -0.03244   0.02172  -0.11956  -0.11736   0.00000
 118        3PY         0.08285   0.03206   0.06735   0.11566   0.00000
 119        3PZ         0.00000   0.00000   0.00000   0.00000   0.06010
 120        4XX        -0.00626  -0.00113  -0.01274  -0.01506   0.00000
 121        4YY         0.01361   0.00393   0.00608   0.01016   0.00000
 122        4ZZ         0.00051  -0.00109   0.00066   0.00073   0.00000
 123        4XY         0.00581   0.00591  -0.00411   0.00200   0.00000
 124        4XZ         0.00000   0.00000   0.00000   0.00000   0.00299
 125        4YZ         0.00000   0.00000   0.00000   0.00000   0.00705
 126 14  H  1S          0.09289   0.08006  -0.08743  -0.05322  -0.09201
 127        2S          0.03346   0.03894  -0.05226  -0.03341  -0.06805
 128        3PX        -0.00278  -0.00151   0.00043   0.00075   0.00354
 129        3PY        -0.00286  -0.00105  -0.00053  -0.00180   0.00163
 130        3PZ         0.00642   0.00489  -0.00450  -0.00228  -0.00096
 131 15  H  1S          0.09289   0.08006  -0.08743  -0.05322   0.09201
 132        2S          0.03346   0.03894  -0.05226  -0.03341   0.06805
 133        3PX        -0.00278  -0.00151   0.00043   0.00075  -0.00354
 134        3PY        -0.00286  -0.00105  -0.00053  -0.00180  -0.00163
 135        3PZ        -0.00642  -0.00489   0.00450   0.00228  -0.00096
 136 16  H  1S         -0.09880  -0.00355  -0.13519  -0.16165   0.00000
 137        2S         -0.04112  -0.00182  -0.07551  -0.09538   0.00000
 138        3PX         0.00977   0.00123   0.00791   0.00998   0.00000
 139        3PY         0.00070   0.00144  -0.00113   0.00111   0.00000
 140        3PZ         0.00000   0.00000   0.00000   0.00000   0.00317
                          16        17        18        19        20
                           O         O         O         O         O
     Eigenvalues --    -0.45800  -0.43031  -0.39125  -0.37713  -0.35440
   1 1   O  1S          0.00000   0.03328   0.00000  -0.03419   0.01362
   2        2S          0.00000  -0.06517   0.00000   0.06484  -0.03407
   3        2PX         0.00000  -0.13945   0.00000   0.19815  -0.03456
   4        2PY         0.00000  -0.17525   0.00000   0.25399   0.12993
   5        2PZ        -0.17148   0.00000  -0.19677   0.00000   0.00000
   6        3S          0.00000  -0.15464   0.00000   0.15577  -0.06571
   7        3PX         0.00000  -0.08319   0.00000   0.13137  -0.01028
   8        3PY         0.00000  -0.10117   0.00000   0.16351   0.08072
   9        3PZ        -0.10759   0.00000  -0.13331   0.00000   0.00000
  10        4XX         0.00000   0.00668   0.00000  -0.01016   0.00576
  11        4YY         0.00000   0.00716   0.00000  -0.00755  -0.00332
  12        4ZZ         0.00000   0.00123   0.00000  -0.00009   0.00022
  13        4XY         0.00000   0.01448   0.00000  -0.01626  -0.00576
  14        4XZ         0.00577   0.00000   0.00777   0.00000   0.00000
  15        4YZ         0.01062   0.00000   0.00967   0.00000   0.00000
  16 2   H  1S          0.00000   0.01480   0.00000  -0.03100   0.04623
  17        2S          0.00000   0.00073   0.00000  -0.00760   0.04761
  18        3PX         0.00000  -0.00244   0.00000   0.00294   0.00200
  19        3PY         0.00000  -0.00700   0.00000   0.00965   0.00287
  20        3PZ        -0.00551   0.00000  -0.00648   0.00000   0.00000
  21 3   C  1S          0.00000  -0.00940   0.00000  -0.01766  -0.00967
  22        2S          0.00000   0.02028   0.00000   0.03484   0.01945
  23        2PX         0.00000  -0.21880   0.00000   0.13747   0.01484
  24        2PY         0.00000   0.11853   0.00000  -0.19270  -0.07366
  25        2PZ        -0.28500   0.00000  -0.20505   0.00000   0.00000
  26        3S          0.00000   0.01660   0.00000   0.08613   0.03181
  27        3PX         0.00000  -0.11046   0.00000   0.09355   0.01053
  28        3PY         0.00000   0.06336   0.00000  -0.07071  -0.01436
  29        3PZ        -0.11389   0.00000  -0.09446   0.00000   0.00000
  30        4XX         0.00000  -0.00640   0.00000   0.00505   0.00982
  31        4YY         0.00000   0.00366   0.00000  -0.01316  -0.01744
  32        4ZZ         0.00000   0.00344   0.00000   0.00298   0.00636
  33        4XY         0.00000   0.00134   0.00000   0.00555   0.00764
  34        4XZ         0.00752   0.00000   0.01495   0.00000   0.00000
  35        4YZ         0.00137   0.00000  -0.00386   0.00000   0.00000
  36 4   C  1S          0.00000   0.00143   0.00000   0.01208   0.01673
  37        2S          0.00000  -0.01336   0.00000  -0.02004  -0.03840
  38        2PX         0.00000   0.24094   0.00000  -0.18029   0.06133
  39        2PY         0.00000  -0.00261   0.00000  -0.00966   0.39291
  40        2PZ        -0.11020   0.00000   0.22085   0.00000   0.00000
  41        3S          0.00000   0.06543   0.00000  -0.06446  -0.06239
  42        3PX         0.00000   0.08779   0.00000  -0.05208   0.03446
  43        3PY         0.00000  -0.03290   0.00000  -0.00628   0.16893
  44        3PZ        -0.04892   0.00000   0.11052   0.00000   0.00000
  45        4XX         0.00000  -0.00425   0.00000   0.00826   0.00733
  46        4YY         0.00000   0.00010   0.00000  -0.00017  -0.01446
  47        4ZZ         0.00000   0.00635   0.00000  -0.00759   0.01360
  48        4XY         0.00000  -0.00317   0.00000  -0.00863   0.00380
  49        4XZ         0.00404   0.00000   0.01300   0.00000   0.00000
[...]
  13        4XY         0.01140
  14        4XZ         0.00270
  15        4YZ         0.00137
  16 2   H  1S          0.49291
  17        2S          0.14171
  18        3PX         0.01240
  19        3PY         0.01600
  20        3PZ         0.01036
  21 3   C  1S          1.99204
  22        2S          0.69740
  23        2PX         0.67346
  24        2PY         0.62199
  25        2PZ         0.73744
  26        3S          0.50616
  27        3PX         0.22359
  28        3PY         0.16840
  29        3PZ         0.29567
  30        4XX        -0.00845
  31        4YY         0.00076
  32        4ZZ        -0.01010
  33        4XY         0.01753
  34        4XZ         0.01779
  35        4YZ         0.00753
  36 4   C  1S          1.99217
  37        2S          0.68485
  38        2PX         0.69561
  39        2PY         0.69430
  40        2PZ         0.71822
  41        3S          0.59403
  42        3PX         0.27474
  43        3PY         0.21000
  44        3PZ         0.32706
  45        4XX        -0.01085
  46        4YY        -0.00353
  47        4ZZ        -0.00946
  48        4XY         0.00922
  49        4XZ         0.01285
  50        4YZ         0.00329
  51 5   H  1S          0.54123
  52        2S          0.35784
  53        3PX         0.00402
  54        3PY         0.00163
  55        3PZ         0.00564
  56 6   H  1S          0.54123
  57        2S          0.35784
  58        3PX         0.00402
  59        3PY         0.00163
  60        3PZ         0.00564
  61 7   C  1S          1.99217
  62        2S          0.68485
  63        2PX         0.69561
  64        2PY         0.69430
  65        2PZ         0.71822
  66        3S          0.59403
  67        3PX         0.27474
  68        3PY         0.21000
  69        3PZ         0.32706
  70        4XX        -0.01085
  71        4YY        -0.00353
  72        4ZZ        -0.00946
  73        4XY         0.00922
  74        4XZ         0.01285
  75        4YZ         0.00329
  76 8   H  1S          0.53318
  77        2S          0.35127
  78        3PX         0.00408
  79        3PY         0.00226
  80        3PZ         0.00550
  81 9   H  1S          0.53318
  82        2S          0.35127
  83        3PX         0.00408
  84        3PY         0.00226
  85        3PZ         0.00550
  86 10  C  1S          1.99204
  87        2S          0.69740
  88        2PX         0.67346
  89        2PY         0.62199
  90        2PZ         0.73744
  91        3S          0.50616
  92        3PX         0.22359
  93        3PY         0.16840
  94        3PZ         0.29567
  95        4XX        -0.00845
  96        4YY         0.00076
  97        4ZZ        -0.01010
  98        4XY         0.01753
  99        4XZ         0.01779
 100        4YZ         0.00753
 101 11  H  1S          0.53318
 102        2S          0.35127
 103        3PX         0.00408
 104        3PY         0.00226
 105        3PZ         0.00550
 106 12  H  1S          0.53318
 107        2S          0.35127
 108        3PX         0.00408
 109        3PY         0.00226
 110        3PZ         0.00550
 111 13  O  1S          1.99248
 112        2S          0.89053
 113        2PX         0.95457
 114        2PY         0.81122
 115        2PZ         1.15503
 116        3S          0.99343
 117        3PX         0.59907
 118        3PY         0.41382
 119        3PZ         0.77166
 120        4XX        -0.00797
 121        4YY         0.00471
 122        4ZZ        -0.01442
 123        4XY         0.01140
 124        4XZ         0.00270
 125        4YZ         0.00137
 126 14  H  1S          0.54123
 127        2S          0.35784
 128        3PX         0.00402
 129        3PY         0.00163
 130        3PZ         0.00564
 131 15  H  1S          0.54123
 132        2S          0.35784
 133        3PX         0.00402
 134        3PY         0.00163
 135        3PZ         0.00564
 136 16  H  1S          0.49291
 137        2S          0.14171
 138        3PX         0.01240
 139        3PY         0.01600
 140        3PZ         0.01036
          Condensed to atoms (all electrons):
              1          2          3          4          5          6
     1  O    8.173494   0.285902   0.235576  -0.049669  -0.037794  -0.037794
     2  H    0.285902   0.411984  -0.022202   0.005948  -0.003899  -0.003899
     3  C    0.235576  -0.022202   4.713878   0.373148   0.375064   0.375064
     4  C   -0.049669   0.005948   0.373148   4.970356  -0.042752  -0.042752
     5  H   -0.037794  -0.003899   0.375064  -0.042752   0.676309  -0.058110
     6  H   -0.037794  -0.003899   0.375064  -0.042752  -0.058110   0.676309
     7  C    0.002124  -0.000258  -0.029797   0.323536  -0.000847  -0.000847
     8  H    0.003887  -0.000097  -0.036606   0.376122   0.006927  -0.008829
     9  H    0.003887  -0.000097  -0.036606   0.376122  -0.008829   0.006927
    10  C   -0.000035   0.000002   0.002990  -0.029797  -0.000074  -0.000074
    11  H    0.000001   0.000001  -0.004560  -0.033957   0.004980  -0.000633
    12  H    0.000001   0.000001  -0.004560  -0.033957  -0.000633   0.004980
    13  O    0.000000   0.000000  -0.000035   0.002124   0.000001   0.000001
    14  H    0.000001   0.000000  -0.000074  -0.000847   0.000001   0.000014
    15  H    0.000001   0.000000  -0.000074  -0.000847   0.000014   0.000001
    16  H    0.000000   0.000000   0.000002  -0.000258   0.000000   0.000000
              7          8          9         10         11         12
     1  O    0.002124   0.003887   0.003887  -0.000035   0.000001   0.000001
     2  H   -0.000258  -0.000097  -0.000097   0.000002   0.000001   0.000001
     3  C   -0.029797  -0.036606  -0.036606   0.002990  -0.004560  -0.004560
     4  C    0.323536   0.376122   0.376122  -0.029797  -0.033957  -0.033957
     5  H   -0.000847   0.006927  -0.008829  -0.000074   0.004980  -0.000633
     6  H   -0.000847  -0.008829   0.006927  -0.000074  -0.000633   0.004980
     7  C    4.970356  -0.033957  -0.033957   0.373148   0.376122   0.376122
     8  H   -0.033957   0.630199  -0.041068  -0.004560   0.005787  -0.005857
     9  H   -0.033957  -0.041068   0.630199  -0.004560  -0.005857   0.005787
    10  C    0.373148  -0.004560  -0.004560   4.713878  -0.036606  -0.036606
    11  H    0.376122   0.005787  -0.005857  -0.036606   0.630199  -0.041068
    12  H    0.376122  -0.005857   0.005787  -0.036606  -0.041068   0.630199
    13  O   -0.049669   0.000001   0.000001   0.235576   0.003887   0.003887
    14  H   -0.042752   0.004980  -0.000633   0.375064   0.006927  -0.008829
    15  H   -0.042752  -0.000633   0.004980   0.375064  -0.008829   0.006927
    16  H    0.005948   0.000001   0.000001  -0.022202  -0.000097  -0.000097
             13         14         15         16
     1  O    0.000000   0.000001   0.000001   0.000000
     2  H    0.000000   0.000000   0.000000   0.000000
     3  C   -0.000035  -0.000074  -0.000074   0.000002
     4  C    0.002124  -0.000847  -0.000847  -0.000258
     5  H    0.000001   0.000001   0.000014   0.000000
     6  H    0.000001   0.000014   0.000001   0.000000
     7  C   -0.049669  -0.042752  -0.042752   0.005948
     8  H    0.000001   0.004980  -0.000633   0.000001
     9  H    0.000001  -0.000633   0.004980   0.000001
    10  C    0.235576   0.375064   0.375064  -0.022202
    11  H    0.003887   0.006927  -0.008829  -0.000097
    12  H    0.003887  -0.008829   0.006927  -0.000097
    13  O    8.173494  -0.037794  -0.037794   0.285902
    14  H   -0.037794   0.676309  -0.058110  -0.003899
    15  H   -0.037794  -0.058110   0.676309  -0.003899
    16  H    0.285902  -0.003899  -0.003899   0.411984
 Mulliken atomic charges:
              1
     1  O   -0.579579
     2  H    0.326613
     3  C    0.058794
     4  C   -0.192520
     5  H    0.089643
     6  H    0.089643
     7  C   -0.192520
     8  H    0.103703
     9  H    0.103703
    10  C    0.058794
    11  H    0.103703
    12  H    0.103703
    13  O   -0.579579
    14  H    0.089643
    15  H    0.089643
    16  H    0.326613
 Sum of Mulliken atomic charges =   0.00000
 Mulliken charges with hydrogens summed into heavy atoms:
              1
     1  O   -0.252967
     3  C    0.238081
     4  C    0.014886
     7  C    0.014886
    10  C    0.238081
    13  O   -0.252967
 Sum of Mulliken charges with hydrogens summed into heavy atoms =   0.00000
 Electronic spatial extent (au):  <R**2>=           1023.1989
 Charge=              0.0000 electrons
 Dipole moment (field-independent basis, Debye):
    X=              0.0000    Y=              0.0000    Z=              0.0000  Tot=              0.0000
 Quadrupole moment (field-independent basis, Debye-Ang):
   XX=            325.5296   YY=           -395.2605   ZZ=            -37.9982
   XY=           -553.7892   XZ=              0.0000   YZ=              0.0000
 Traceless Quadrupole moment (field-independent basis, Debye-Ang):
   XX=            361.4393   YY=           -359.3508   ZZ=             -2.0885
   XY=           -553.7892   XZ=              0.0000   YZ=              0.0000
 Octapole moment (field-independent basis, Debye-Ang**2):
  XXX=              0.0000  YYY=              0.0000  ZZZ=              0.0000  XYY=              0.0000
  XXY=              0.0000  XXZ=              0.0000  XZZ=              0.0000  YZZ=              0.0000
  YYZ=              0.0000  XYZ=              0.0000
 Hexadecapole moment (field-independent basis, Debye-Ang**3):
 XXXX=           1176.5292 YYYY=          -5471.4873 ZZZZ=            -63.4772 XXXY=          -1474.9540
 XXXZ=              0.0000 YYYX=          -3609.5477 YYYZ=              0.0000 ZZZX=              0.0000
 ZZZY=              0.0000 XXYY=           1530.3613 XXZZ=              1.7854 YYZZ=           -219.2138
 XXYZ=              0.0000 YYXZ=              0.0000 ZZXY=             -2.5149
 N-N= 2.440223606486D+02 E-N=-1.209708595233D+03  KE= 3.060970832779D+02
 Symmetry AG   KE= 1.459724879352D+02
 Symmetry BG   KE= 8.706546168162D+00
 Symmetry AU   KE= 8.520220584549D+00
 Symmetry BU   KE= 1.428978285900D+02
 Orbital energies and kinetic energies (alpha):
                                 1                 2
   1         (BU)--O         -19.141062         29.028989
   2         (AG)--O         -19.141061         29.029609
   3         (BU)--O         -10.226608         15.888576
   4         (AG)--O         -10.226604         15.887142
   5         (AG)--O         -10.180636         15.882104
   6         (BU)--O         -10.180423         15.887989
   7         (AG)--O          -1.011060          2.508187
   8         (BU)--O          -1.010676          2.516811
   9         (AG)--O          -0.790371          1.431379
  10         (BU)--O          -0.709088          1.618130
  11         (AG)--O          -0.615091          1.673966
  12         (BU)--O          -0.581146          1.226775
  13         (AG)--O          -0.510695          1.524251
  14         (BU)--O          -0.491417          1.847982
  15         (AU)--O          -0.483778          0.907870
  16         (BG)--O          -0.445937          1.102587
  17         (BU)--O          -0.422296          1.494764
  18         (AU)--O          -0.381144          1.261530
  19         (AG)--O          -0.375011          1.944352
  20         (AG)--O          -0.354873          1.420695
  21         (BU)--O          -0.333273          1.938897
  22         (BG)--O          -0.331404          1.132341
  23         (AG)--O          -0.317728          1.684558
  24         (BG)--O          -0.267992          2.118345
  25         (AU)--O          -0.264328          2.090711
  26         (BU)--V           0.083553          1.210809
  27         (AG)--V           0.090417          1.126625
  28         (AG)--V           0.097818          1.091632
  29         (AU)--V           0.128721          0.870855
  30         (BU)--V           0.138779          1.194202
  31         (BU)--V           0.159252          1.203435
  32         (AG)--V           0.183461          1.334038
  33         (BG)--V           0.185729          1.011569
  34         (AG)--V           0.203572          1.308422
  35         (BG)--V           0.205107          1.040242
  36         (BU)--V           0.206308          1.932479
  37         (AU)--V           0.208607          1.057731
  38         (BU)--V           0.243665          1.568836
  39         (BU)--V           0.278499          1.970679
  40         (AG)--V           0.309443          2.243420
  41         (AG)--V           0.494234          1.927913
  42         (BU)--V           0.526515          1.925226
  43         (AU)--V           0.558322          1.630539
  44         (AG)--V           0.564351          1.948752
  45         (BU)--V           0.585398          2.386727
  46         (BG)--V           0.589020          1.773430
  47         (AG)--V           0.654946          2.602441
  48         (AU)--V           0.681794          2.199249
  49         (BU)--V           0.681863          2.608175
  50         (AG)--V           0.688912          2.011438
  51         (BU)--V           0.723466          2.514758
  52         (BG)--V           0.775722          2.606832
  53         (BU)--V           0.787614          2.653534
  54         (AG)--V           0.813154          2.832419
  55         (AU)--V           0.818697          2.457785
  56         (AG)--V           0.844915          2.482054
  57         (BG)--V           0.855721          2.578113
  58         (AU)--V           0.892101          2.432276
  59         (BU)--V           0.892267          2.641240
  60         (AG)--V           0.923896          2.492567
  61         (BU)--V           0.936138          2.586520
  62         (BG)--V           0.948573          2.906708
  63         (AG)--V           0.951112          2.395135
  64         (BU)--V           0.981871          2.902577
  65         (AG)--V           0.990832          2.776576
  66         (AU)--V           1.008963          3.139640
  67         (BG)--V           1.129209          2.425599
  68         (BU)--V           1.155315          2.627583
  69         (AG)--V           1.212752          2.637264
  70         (BU)--V           1.280006          2.634818
  71         (AU)--V           1.305212          2.362736
  72         (AG)--V           1.368918          2.538252
  73         (BU)--V           1.371325          2.526600
  74         (AG)--V           1.444861          2.530076
  75         (BU)--V           1.454704          2.484713
  76         (BG)--V           1.570952          2.574062
  77         (BU)--V           1.577153          2.727188
  78         (AU)--V           1.590973          2.571142
  79         (BG)--V           1.614644          2.601545
  80         (AG)--V           1.633027          2.721843
  81         (BG)--V           1.690926          2.648308
  82         (AU)--V           1.693565          2.678359
  83         (AG)--V           1.828938          3.031338
  84         (BU)--V           1.864941          3.040800
  85         (AG)--V           1.867361          3.268083
  86         (AG)--V           1.875962          3.185235
  87         (BU)--V           1.914928          3.228851
  88         (BG)--V           1.940256          2.998504
  89         (AU)--V           1.943254          2.981947
  90         (BU)--V           1.960763          3.231473
  91         (AG)--V           2.002399          3.550196
  92         (AU)--V           2.066596          3.196930
  93         (BG)--V           2.078602          3.144773
  94         (BU)--V           2.089229          3.498322
  95         (AU)--V           2.118202          3.206810
  96         (BG)--V           2.134567          3.322983
  97         (AG)--V           2.234656          3.458891
  98         (AU)--V           2.236526          3.048221
  99         (BG)--V           2.287195          3.112951
 100         (AU)--V           2.306043          3.142597
 101         (BU)--V           2.334324          3.551224
 102         (AG)--V           2.345466          3.549188
 103         (BU)--V           2.361605          3.744976
 104         (BG)--V           2.410569          3.337815
 105         (AG)--V           2.411575          3.649187
 106         (AU)--V           2.502266          3.563753
 107         (BU)--V           2.540453          3.642933
 108         (AG)--V           2.608710          3.679027
 109         (BU)--V           2.647915          3.923059
 110         (BG)--V           2.665303          3.603968
 111         (AU)--V           2.669085          3.605560
 112         (BU)--V           2.678362          3.739712
 113         (BG)--V           2.688686          3.812416
 114         (AG)--V           2.712447          3.936391
 115         (BU)--V           2.734728          3.974223
 116         (AG)--V           2.791575          3.736613
 117         (AU)--V           2.817766          3.963928
 118         (AG)--V           2.841571          4.221099
 119         (BU)--V           2.853438          3.931423
 120         (BG)--V           2.888010          4.012327
 121         (AG)--V           2.925733          4.150172
 122         (BU)--V           2.930720          4.301361
 123         (AG)--V           2.986218          4.190407
 124         (BU)--V           3.008343          4.342460
 125         (AG)--V           3.228892          4.822657
 126         (BU)--V           3.261339          4.861669
 127         (AG)--V           3.295249          5.090825
 128         (BG)--V           3.314491          4.879531
 129         (BU)--V           3.373124          5.505993
 130         (AU)--V           3.425856          4.991791
 131         (AG)--V           3.462556          6.262762
 132         (BU)--V           3.479774          5.915274
 133         (BG)--V           3.547273          5.130334
 134         (AU)--V           3.575211          5.208758
 135         (AG)--V           3.910686          9.460724
 136         (BU)--V           3.987575          9.479909
 137         (AG)--V           4.273270         10.071465
 138         (BU)--V           4.419743         10.147918
 139         (AG)--V           4.553491         10.154327
 140         (BU)--V           4.721885         10.452399
 Total kinetic energy from orbitals= 3.060970832779D+02
 No NMR shielding tensors so no spin-rotation constants.
 Leave Link  601 at Mon Mar 14 13:47:19 2022, MaxMem=  536870912 cpu:       1.4
 (Enter /opt/gridunesp/dist/gaussian/g09/l9999.exe)

 Test job not archived.
 1\1\GINC-NODE025\FOpt\RB3LYP\6-31G(d,p)\C4H10O2\RHEINHEIMER\14-Mar-202
 2\0\\#P B3LYP/6-31G(d,p) # Opt=tight SCRF=(Solvent=Water) # Gfinput IO
 P(6/7=3) Pop=full Density Test # Units(Ang,Deg)\\peg-3.xyz\\0,1\O,-0.0
 767353776,0.,0.0343640149\H,-0.0756256927,0.,1.0007444492\C,1.28407934
 46,0.,-0.3985108212\C,1.2984330219,0.,-1.9216589107\H,1.8174168449,0.8
 862244336,-0.0206482012\H,1.8174168449,-0.8862244336,-0.0206482012\C,2
 .7179482274,0.,-2.4983235896\H,0.7475399615,-0.8807041947,-2.276019107
 4\H,0.7475399615,0.8807041947,-2.2760191074\C,2.7323019047,0.,-4.02147
 16791\H,3.2688412879,0.8807041947,-2.1439633928\H,3.2688412879,-0.8807
 041947,-2.1439633928\O,4.093116627,0.,-4.4543465152\H,2.1989644045,-0.
 8862244336,-4.3993342991\H,2.1989644045,0.8862244336,-4.3993342991\H,4
 .0920069421,0.,-5.4207269495\\Version=EM64L-G09RevA.02\State=1-AG\HF=-
 308.8952032\RMSD=5.517e-09\RMSF=5.439e-06\Dipole=0.,0.,0.\Quadrupole=-
 455.7978833,-1.5527558,457.3506391,0.,-181.2593307,0.\PG=C02H [SGH(C4H
 2O2),X(H8)]\\@


 ALMOST ANYTHING IS EASIER TO GET INTO THAN OUT OF.

                         -- AGNES ALLEN'S LAW FROM
                PAUL DICKSON'S "THE OFFICIAL RULES"
 Job cpu time:  0 days  0 hours  7 minutes 18.1 seconds.
 File lengths (MBytes):  RWF=    114 Int=      0 D2E=      0 Chk=      5 Scr=      2
 Normal termination of Gaussian 09 at Mon Mar 14 13:47:19 2022.
