 Entering Gaussian System, Link 0=g09
 Input=peg-7_opt_g09.com
 Output=peg-7_opt_g09.log
 Initial command:
 /opt/gridunesp/dist/gaussian/g09/l1.exe /store/rheinheimer/2838052/Gau-3654.inp -scrdir=/store/rheinheimer/2838052/
 Entering Link 1 = /opt/gridunesp/dist/gaussian/g09/l1.exe PID=      3656.
  
 Copyright (c) 1988,1990,1992,1993,1995,1998,2003,2009, Gaussian, Inc.
                  All Rights Reserved.
  
 This is part of the Gaussian(R) 09 program.  It is based on
 the Gaussian(R) 03 system (copyright 2003, Gaussian, Inc.),
 the Gaussian(R) 98 system (copyright 1998, Gaussian, Inc.),
 the Gaussian(R) 94 system (copyright 1995, Gaussian, Inc.),
 the Gaussian 92(TM) system (copyright 1992, Gaussian, Inc.),
 the Gaussian 90(TM) system (copyright 1990, Gaussian, Inc.),
 the Gaussian 88(TM) system (copyright 1988, Gaussian, Inc.),
 the Gaussian 86(TM) system (copyright 1986, Carnegie Mellon
 University), and the Gaussian 82(TM) system (copyright 1983,
 Carnegie Mellon University). Gaussian is a federally registered
 trademark of Gaussian, Inc.
  
 This software contains proprietary and confidential information,
 including trade secrets, belonging to Gaussian, Inc.
  
 This software is provided under written license and may be
 used, copied, transmitted, or stored only in accord with that
 written license.
  
 The following legend is applicable only to US Government
 contracts under FAR:
  
                    RESTRICTED RIGHTS LEGEND
  
 Use, reproduction and disclosure by the US Government is
 subject to restrictions as set forth in subparagraphs (a)
 and (c) of the Commercial Computer Software - Restricted
 Rights clause in FAR 52.227-19.
  
 Gaussian, Inc.
 340 Quinnipiac St., Bldg. 40, Wallingford CT 06492
  
  
 ---------------------------------------------------------------
 Warning -- This program may not be used in any manner that
 competes with the business of Gaussian, Inc. or will provide
 assistance to any competitor of Gaussian, Inc.  The licensee
 of this program is prohibited from giving any competitor of
 Gaussian, Inc. access to this program.  By using this program,
 the user acknowledges that Gaussian, Inc. is engaged in the
 business of creating and licensing software in the field of
 computational chemistry and represents and warrants to the
 licensee that it is not a competitor of Gaussian, Inc. and that
 it will not use this program in any manner prohibited above.
 ---------------------------------------------------------------
  

 Cite this work as:
 Gaussian 09, Revision A.02,
 M. J. Frisch, G. W. Trucks, H. B. Schlegel, G. E. Scuseria, 
 M. A. Robb, J. R. Cheeseman, G. Scalmani, V. Barone, B. Mennucci, 
 G. A. Petersson, H. Nakatsuji, M. Caricato, X. Li, H. P. Hratchian, 
 A. F. Izmaylov, J. Bloino, G. Zheng, J. L. Sonnenberg, M. Hada, 
 M. Ehara, K. Toyota, R. Fukuda, J. Hasegawa, M. Ishida, T. Nakajima, 
 Y. Honda, O. Kitao, H. Nakai, T. Vreven, J. A. Montgomery, Jr., 
 J. E. Peralta, F. Ogliaro, M. Bearpark, J. J. Heyd, E. Brothers, 
 K. N. Kudin, V. N. Staroverov, R. Kobayashi, J. Normand, 
 K. Raghavachari, A. Rendell, J. C. Burant, S. S. Iyengar, J. Tomasi, 
 M. Cossi, N. Rega, J. M. Millam, M. Klene, J. E. Knox, J. B. Cross, 
 V. Bakken, C. Adamo, J. Jaramillo, R. Gomperts, R. E. Stratmann, 
 O. Yazyev, A. J. Austin, R. Cammi, C. Pomelli, J. W. Ochterski, 
 R. L. Martin, K. Morokuma, V. G. Zakrzewski, G. A. Voth, 
 P. Salvador, J. J. Dannenberg, S. Dapprich, A. D. Daniels, 
 O. Farkas, J. B. Foresman, J. V. Ortiz, J. Cioslowski, 
 and D. J. Fox, Gaussian, Inc., Wallingford CT, 2009.
 
 ******************************************
 Gaussian 09:  EM64L-G09RevA.02 11-Jun-2009
                14-Mar-2022 
 ******************************************
 %nprocshared=8
 Will use up to    8 processors via shared memory.
 %mem=4GB
 ----------------------------------------------------------------------
 #p opt=tight b3lyp/6-31g(d,p) scrf=(solvent=water) geom=connectivity #
  density gfinput iop(6/7=3) pop=full test units=(ang,deg)
 ----------------------------------------------------------------------
 1/7=10,14=-1,18=20,19=15,26=3,38=1,57=2/1,3;
 2/9=110,12=2,17=6,18=5,40=1/2;
 3/5=1,6=6,7=101,11=2,16=1,24=10,25=1,30=1,70=2201,71=1,72=1,74=-5/1,2,3;
 4//1;
 5/5=2,38=5,53=1/2;
 6/7=3,22=-1,28=1/1;
 7//1,2,3,16;
 1/7=10,14=-1,18=20,19=15/3(2);
 2/9=110/2;
 99//99;
 2/9=110/2;
 3/5=1,6=6,7=101,11=2,16=1,25=1,30=1,70=2205,71=1,72=1,74=-5/1,2,3;
 4/5=5,16=3/1;
 5/5=2,38=5,53=1/2;
 7//1,2,3,16;
 1/7=10,14=-1,18=20,19=15/3(-5);
 2/9=110/2;
 6/7=3,19=2,22=-1,28=1/1;
 99/9=1/99;
 Leave Link    1 at Mon Mar 14 13:54:46 2022, MaxMem=  536870912 cpu:       0.6
 (Enter /opt/gridunesp/dist/gaussian/g09/l101.exe)
 ---------
 peg-6.xyz
 ---------
 Symbolic Z-matrix:
 Charge =  0 Multiplicity = 1
 O                     0.        0.        0. 
 H                     0.        0.        0.947 
 C                     1.30108   0.       -0.45999 
 C                     1.30108   0.       -1.95999 
 H                     1.80548   0.87365  -0.10333 
 H                     1.80548  -0.87365  -0.10333 
 C                     2.7153    0.       -2.45999 
 H                     0.79668  -0.87365  -2.31666 
 H                     0.79668   0.87365  -2.31666 
 C                     2.7153    0.       -3.95999 
 H                     3.2197    0.87365  -2.10332 
 H                     3.2197   -0.87365  -2.10332 
 C                     4.12952   0.       -4.45998 
 H                     2.2109   -0.87365  -4.31666 
 H                     2.2109    0.87365  -4.31666 
 C                     4.12953   0.       -5.95998 
 H                     4.63392   0.87365  -4.10332 
 H                     4.63392  -0.87365  -4.10332 
 C                     5.54374   0.       -6.45998 
 H                     3.62513  -0.87365  -6.31665 
 H                     3.62513   0.87365  -6.31665 
 H                     6.04814   0.87365  -6.10331 
 H                     6.04814  -0.87365  -6.10331 
 C                     5.54375   0.       -7.99998 
 H                     5.03933   0.87364  -8.35665 
 H                     5.03937  -0.87366  -8.35665 
 O                     6.89197   0.00003  -8.47664 
 H                     6.89246   0.00002  -9.43664 
 
 NAtoms=     28 NQM=     28 NQMF=      0 NMic=      0 NMicF=      0 NTot=     28.
                    Isotopes and Nuclear Properties:
 (Nuclear quadrupole moments (NQMom) in fm**2, nuclear magnetic moments (NMagM)
  in nuclear magnetons)

  Atom         1           2           3           4           5           6           7           8           9          10
 IAtWgt=          16           1          12          12           1           1          12           1           1          12
 AtmWgt=  15.9949146   1.0078250  12.0000000  12.0000000   1.0078250   1.0078250  12.0000000   1.0078250   1.0078250  12.0000000
 NucSpn=           0           1           0           0           1           1           0           1           1           0
 AtZEff=   0.0000000   0.0000000   0.0000000   0.0000000   0.0000000   0.0000000   0.0000000   0.0000000   0.0000000   0.0000000
 NQMom=    0.0000000   0.0000000   0.0000000   0.0000000   0.0000000   0.0000000   0.0000000   0.0000000   0.0000000   0.0000000
 NMagM=    0.0000000   2.7928460   0.0000000   0.0000000   2.7928460   2.7928460   0.0000000   2.7928460   2.7928460   0.0000000

  Atom        11          12          13          14          15          16          17          18          19          20
 IAtWgt=           1           1          12           1           1          12           1           1          12           1
 AtmWgt=   1.0078250   1.0078250  12.0000000   1.0078250   1.0078250  12.0000000   1.0078250   1.0078250  12.0000000   1.0078250
 NucSpn=           1           1           0           1           1           0           1           1           0           1
 AtZEff=   0.0000000   0.0000000   0.0000000   0.0000000   0.0000000   0.0000000   0.0000000   0.0000000   0.0000000   0.0000000
 NQMom=    0.0000000   0.0000000   0.0000000   0.0000000   0.0000000   0.0000000   0.0000000   0.0000000   0.0000000   0.0000000
 NMagM=    2.7928460   2.7928460   0.0000000   2.7928460   2.7928460   0.0000000   2.7928460   2.7928460   0.0000000   2.7928460

  Atom        21          22          23          24          25          26          27          28
 IAtWgt=           1           1           1          12           1           1          16           1
 AtmWgt=   1.0078250   1.0078250   1.0078250  12.0000000   1.0078250   1.0078250  15.9949146   1.0078250
 NucSpn=           1           1           1           0           1           1           0           1
 AtZEff=   0.0000000   0.0000000   0.0000000   0.0000000   0.0000000   0.0000000   0.0000000   0.0000000
 NQMom=    0.0000000   0.0000000   0.0000000   0.0000000   0.0000000   0.0000000   0.0000000   0.0000000
 NMagM=    2.7928460   2.7928460   2.7928460   0.0000000   2.7928460   2.7928460   0.0000000   2.7928460
 Leave Link  101 at Mon Mar 14 13:54:46 2022, MaxMem=  536870912 cpu:       0.6
 (Enter /opt/gridunesp/dist/gaussian/g09/l103.exe)

 GradGradGradGradGradGradGradGradGradGradGradGradGradGradGradGradGradGrad
 Berny optimization.
 Initialization pass.
                           ----------------------------
                           !    Initial Parameters    !
                           ! (Angstroms and Degrees)  !
 --------------------------                            --------------------------
 ! Name  Definition              Value          Derivative Info.                !
 --------------------------------------------------------------------------------
 ! R1    R(1,2)                  0.947          estimate D2E/DX2                !
 ! R2    R(1,3)                  1.38           estimate D2E/DX2                !
 ! R3    R(3,4)                  1.5            estimate D2E/DX2                !
 ! R4    R(3,5)                  1.07           estimate D2E/DX2                !
 ! R5    R(3,6)                  1.07           estimate D2E/DX2                !
 ! R6    R(4,7)                  1.5            estimate D2E/DX2                !
 ! R7    R(4,8)                  1.07           estimate D2E/DX2                !
 ! R8    R(4,9)                  1.07           estimate D2E/DX2                !
 ! R9    R(7,10)                 1.5            estimate D2E/DX2                !
 ! R10   R(7,11)                 1.07           estimate D2E/DX2                !
 ! R11   R(7,12)                 1.07           estimate D2E/DX2                !
 ! R12   R(10,13)                1.5            estimate D2E/DX2                !
 ! R13   R(10,14)                1.07           estimate D2E/DX2                !
 ! R14   R(10,15)                1.07           estimate D2E/DX2                !
 ! R15   R(13,16)                1.5            estimate D2E/DX2                !
 ! R16   R(13,17)                1.07           estimate D2E/DX2                !
 ! R17   R(13,18)                1.07           estimate D2E/DX2                !
 ! R18   R(16,19)                1.5            estimate D2E/DX2                !
 ! R19   R(16,20)                1.07           estimate D2E/DX2                !
 ! R20   R(16,21)                1.07           estimate D2E/DX2                !
 ! R21   R(19,22)                1.07           estimate D2E/DX2                !
 ! R22   R(19,23)                1.07           estimate D2E/DX2                !
 ! R23   R(19,24)                1.54           estimate D2E/DX2                !
 ! R24   R(24,25)                1.07           estimate D2E/DX2                !
 ! R25   R(24,26)                1.07           estimate D2E/DX2                !
 ! R26   R(24,27)                1.43           estimate D2E/DX2                !
 ! R27   R(27,28)                0.96           estimate D2E/DX2                !
 ! A1    A(2,1,3)              109.4708         estimate D2E/DX2                !
 ! A2    A(1,3,4)              109.4708         estimate D2E/DX2                !
 ! A3    A(1,3,5)              109.4715         estimate D2E/DX2                !
 ! A4    A(1,3,6)              109.4715         estimate D2E/DX2                !
 ! A5    A(4,3,5)              109.4709         estimate D2E/DX2                !
 ! A6    A(4,3,6)              109.4709         estimate D2E/DX2                !
 ! A7    A(5,3,6)              109.4717         estimate D2E/DX2                !
 ! A8    A(3,4,7)              109.4711         estimate D2E/DX2                !
 ! A9    A(3,4,8)              109.4714         estimate D2E/DX2                !
 ! A10   A(3,4,9)              109.4714         estimate D2E/DX2                !
 ! A11   A(7,4,8)              109.4711         estimate D2E/DX2                !
 ! A12   A(7,4,9)              109.4711         estimate D2E/DX2                !
 ! A13   A(8,4,9)              109.4712         estimate D2E/DX2                !
 ! A14   A(4,7,10)             109.4711         estimate D2E/DX2                !
 ! A15   A(4,7,11)             109.4711         estimate D2E/DX2                !
 ! A16   A(4,7,12)             109.4711         estimate D2E/DX2                !
 ! A17   A(10,7,11)            109.4714         estimate D2E/DX2                !
 ! A18   A(10,7,12)            109.4714         estimate D2E/DX2                !
 ! A19   A(11,7,12)            109.4712         estimate D2E/DX2                !
 ! A20   A(7,10,13)            109.4708         estimate D2E/DX2                !
 ! A21   A(7,10,14)            109.4714         estimate D2E/DX2                !
 ! A22   A(7,10,15)            109.4714         estimate D2E/DX2                !
 ! A23   A(13,10,14)           109.4713         estimate D2E/DX2                !
 ! A24   A(13,10,15)           109.4713         estimate D2E/DX2                !
 ! A25   A(14,10,15)           109.4712         estimate D2E/DX2                !
 ! A26   A(10,13,16)           109.4712         estimate D2E/DX2                !
 ! A27   A(10,13,17)           109.4715         estimate D2E/DX2                !
 ! A28   A(10,13,18)           109.4715         estimate D2E/DX2                !
 ! A29   A(16,13,17)           109.4707         estimate D2E/DX2                !
 ! A30   A(16,13,18)           109.4707         estimate D2E/DX2                !
 ! A31   A(17,13,18)           109.4717         estimate D2E/DX2                !
 ! A32   A(13,16,19)           109.4716         estimate D2E/DX2                !
 ! A33   A(13,16,20)           109.4712         estimate D2E/DX2                !
 ! A34   A(13,16,21)           109.4712         estimate D2E/DX2                !
 ! A35   A(19,16,20)           109.471          estimate D2E/DX2                !
 ! A36   A(19,16,21)           109.471          estimate D2E/DX2                !
 ! A37   A(20,16,21)           109.4712         estimate D2E/DX2                !
 ! A38   A(16,19,22)           109.471          estimate D2E/DX2                !
 ! A39   A(16,19,23)           109.471          estimate D2E/DX2                !
 ! A40   A(16,19,24)           109.4717         estimate D2E/DX2                !
 ! A41   A(22,19,23)           109.4712         estimate D2E/DX2                !
 ! A42   A(22,19,24)           109.4712         estimate D2E/DX2                !
 ! A43   A(23,19,24)           109.4712         estimate D2E/DX2                !
 ! A44   A(19,24,25)           109.4712         estimate D2E/DX2                !
 ! A45   A(19,24,26)           109.4712         estimate D2E/DX2                !
 ! A46   A(19,24,27)           109.4712         estimate D2E/DX2                !
 ! A47   A(25,24,26)           109.4712         estimate D2E/DX2                !
 ! A48   A(25,24,27)           109.4713         estimate D2E/DX2                !
 ! A49   A(26,24,27)           109.4712         estimate D2E/DX2                !
 ! A50   A(24,27,28)           109.5            estimate D2E/DX2                !
 ! D1    D(2,1,3,4)            180.0            estimate D2E/DX2                !
 ! D2    D(2,1,3,5)            -60.0005         estimate D2E/DX2                !
 ! D3    D(2,1,3,6)             60.0005         estimate D2E/DX2                !
 ! D4    D(1,3,4,7)            180.0            estimate D2E/DX2                !
 ! D5    D(1,3,4,8)            -60.0001         estimate D2E/DX2                !
 ! D6    D(1,3,4,9)             60.0001         estimate D2E/DX2                !
 ! D7    D(5,3,4,7)             60.0001         estimate D2E/DX2                !
 ! D8    D(5,3,4,8)            180.0            estimate D2E/DX2                !
 ! D9    D(5,3,4,9)            -59.9998         estimate D2E/DX2                !
 ! D10   D(6,3,4,7)            -60.0001         estimate D2E/DX2                !
 ! D11   D(6,3,4,8)             59.9998         estimate D2E/DX2                !
 ! D12   D(6,3,4,9)            180.0            estimate D2E/DX2                !
 ! D13   D(3,4,7,10)           180.0            estimate D2E/DX2                !
 ! D14   D(3,4,7,11)           -59.9999         estimate D2E/DX2                !
 ! D15   D(3,4,7,12)            59.9999         estimate D2E/DX2                !
 ! D16   D(8,4,7,10)            59.9999         estimate D2E/DX2                !
 ! D17   D(8,4,7,11)           180.0            estimate D2E/DX2                !
 ! D18   D(8,4,7,12)           -60.0002         estimate D2E/DX2                !
 ! D19   D(9,4,7,10)           -59.9999         estimate D2E/DX2                !
 ! D20   D(9,4,7,11)            60.0002         estimate D2E/DX2                !
 ! D21   D(9,4,7,12)           180.0            estimate D2E/DX2                !
 ! D22   D(4,7,10,13)          180.0            estimate D2E/DX2                !
 ! D23   D(4,7,10,14)          -60.0001         estimate D2E/DX2                !
 ! D24   D(4,7,10,15)           60.0001         estimate D2E/DX2                !
 ! D25   D(11,7,10,13)          60.0001         estimate D2E/DX2                !
 ! D26   D(11,7,10,14)         180.0            estimate D2E/DX2                !
 ! D27   D(11,7,10,15)         -59.9998         estimate D2E/DX2                !
 ! D28   D(12,7,10,13)         -60.0001         estimate D2E/DX2                !
 ! D29   D(12,7,10,14)          59.9998         estimate D2E/DX2                !
 ! D30   D(12,7,10,15)         180.0            estimate D2E/DX2                !
 ! D31   D(7,10,13,16)         180.0            estimate D2E/DX2                !
 ! D32   D(7,10,13,17)         -60.0005         estimate D2E/DX2                !
 ! D33   D(7,10,13,18)          60.0005         estimate D2E/DX2                !
 ! D34   D(14,10,13,16)         60.0            estimate D2E/DX2                !
 ! D35   D(14,10,13,17)        179.9995         estimate D2E/DX2                !
 ! D36   D(14,10,13,18)        -59.9996         estimate D2E/DX2                !
 ! D37   D(15,10,13,16)        -60.0            estimate D2E/DX2                !
 ! D38   D(15,10,13,17)         59.9996         estimate D2E/DX2                !
 ! D39   D(15,10,13,18)       -179.9995         estimate D2E/DX2                !
 ! D40   D(10,13,16,19)        180.0            estimate D2E/DX2                !
 ! D41   D(10,13,16,20)        -60.0            estimate D2E/DX2                !
 ! D42   D(10,13,16,21)         60.0            estimate D2E/DX2                !
 ! D43   D(17,13,16,19)         60.0            estimate D2E/DX2                !
 ! D44   D(17,13,16,20)        180.0            estimate D2E/DX2                !
 ! D45   D(17,13,16,21)        -60.0            estimate D2E/DX2                !
 ! D46   D(18,13,16,19)        -60.0            estimate D2E/DX2                !
 ! D47   D(18,13,16,20)         60.0            estimate D2E/DX2                !
 ! D48   D(18,13,16,21)        180.0            estimate D2E/DX2                !
 ! D49   D(13,16,19,22)        -59.9998         estimate D2E/DX2                !
 ! D50   D(13,16,19,23)         59.9998         estimate D2E/DX2                !
 ! D51   D(13,16,19,24)        180.0            estimate D2E/DX2                !
 ! D52   D(20,16,19,22)        180.0            estimate D2E/DX2                !
 ! D53   D(20,16,19,23)        -60.0003         estimate D2E/DX2                !
 ! D54   D(20,16,19,24)         59.9998         estimate D2E/DX2                !
 ! D55   D(21,16,19,22)         60.0003         estimate D2E/DX2                !
 ! D56   D(21,16,19,23)       -180.0            estimate D2E/DX2                !
 ! D57   D(21,16,19,24)        -59.9998         estimate D2E/DX2                !
 ! D58   D(16,19,24,25)         59.9988         estimate D2E/DX2                !
 ! D59   D(16,19,24,26)        -60.0012         estimate D2E/DX2                !
 ! D60   D(16,19,24,27)        179.9988         estimate D2E/DX2                !
 ! D61   D(22,19,24,25)        -60.0013         estimate D2E/DX2                !
 ! D62   D(22,19,24,26)        179.9987         estimate D2E/DX2                !
 ! D63   D(22,19,24,27)         59.9987         estimate D2E/DX2                !
 ! D64   D(23,19,24,25)        179.9988         estimate D2E/DX2                !
 ! D65   D(23,19,24,26)         59.9988         estimate D2E/DX2                !
 ! D66   D(23,19,24,27)        -60.0012         estimate D2E/DX2                !
 ! D67   D(19,24,27,28)        179.9994         estimate D2E/DX2                !
 ! D68   D(25,24,27,28)        -60.0006         estimate D2E/DX2                !
 ! D69   D(26,24,27,28)         59.9994         estimate D2E/DX2                !
 --------------------------------------------------------------------------------
 Trust Radius=3.00D-01 FncErr=1.00D-07 GrdErr=1.00D-06
 Number of steps in this run= 156 maximum allowed number of steps= 168.
 GradGradGradGradGradGradGradGradGradGradGradGradGradGradGradGradGradGrad

 Leave Link  103 at Mon Mar 14 13:54:46 2022, MaxMem=  536870912 cpu:       0.1
 (Enter /opt/gridunesp/dist/gaussian/g09/l202.exe)
                          Input orientation:                          
 ---------------------------------------------------------------------
 Center     Atomic      Atomic             Coordinates (Angstroms)
 Number     Number       Type             X           Y           Z
 ---------------------------------------------------------------------
      1          8           0        0.000000    0.000000    0.000000
      2          1           0        0.000000    0.000000    0.947000
      3          6           0        1.301080    0.000000   -0.459990
      4          6           0        1.301080    0.000000   -1.959990
      5          1           0        1.805480    0.873650   -0.103330
      6          1           0        1.805480   -0.873650   -0.103330
      7          6           0        2.715300    0.000000   -2.459990
      8          1           0        0.796680   -0.873650   -2.316660
      9          1           0        0.796680    0.873650   -2.316660
     10          6           0        2.715300    0.000000   -3.959990
     11          1           0        3.219700    0.873650   -2.103320
     12          1           0        3.219700   -0.873650   -2.103320
     13          6           0        4.129520    0.000000   -4.459980
     14          1           0        2.210900   -0.873650   -4.316660
     15          1           0        2.210900    0.873650   -4.316660
     16          6           0        4.129530    0.000000   -5.959980
     17          1           0        4.633920    0.873650   -4.103320
     18          1           0        4.633920   -0.873650   -4.103320
     19          6           0        5.543740    0.000000   -6.459980
     20          1           0        3.625130   -0.873650   -6.316650
     21          1           0        3.625130    0.873650   -6.316650
     22          1           0        6.048140    0.873650   -6.103310
     23          1           0        6.048140   -0.873650   -6.103310
     24          6           0        5.543751    0.000000   -7.999980
     25          1           0        5.039332    0.873641   -8.356650
     26          1           0        5.039370   -0.873662   -8.356651
     27          8           0        6.891972    0.000029   -8.476636
     28          1           0        6.892461    0.000020   -9.436636
 ---------------------------------------------------------------------
                    Distance matrix (angstroms):
                    1          2          3          4          5
     1  O    0.000000
     2  H    0.947000   0.000000
     3  C    1.380000   1.916359   0.000000
     4  C    2.352524   3.184870   1.500000   0.000000
     5  H    2.008407   2.264115   1.069995   2.113024   0.000000
     6  H    2.008407   2.264115   1.069995   2.113024   1.747300
     7  C    3.663933   4.356654   2.449493   1.500006   2.672991
     8  H    2.600938   3.471230   2.113033   1.069999   2.994923
     9  H    2.600938   3.471230   2.113033   1.069999   2.432387
    10  C    4.801497   5.608155   3.774920   2.449493   4.057692
    11  H    3.943816   4.520419   2.672995   2.113033   2.449485
    12  H    3.943816   4.520419   2.672995   2.113033   3.008826
    13  C    6.078187   6.803556   4.898979   3.774920   5.014462
    14  H    4.927971   5.775592   4.057701   2.673000   4.579255
    15  H    4.927971   5.775592   4.057701   2.673000   4.232790
    16  C    7.250819   8.047322   6.184660   4.898985   6.361197
    17  H    6.250897   6.909574   5.014473   4.057703   4.898979
    18  H    6.250897   6.909574   5.014473   4.057703   5.201255
    19  C    8.512602   9.251833   7.348472   6.184664   7.425958
    20  H    7.335182   8.164891   6.361206   5.014475   6.705932
    21  H    7.335182   8.164891   6.361206   5.014475   6.474293
    22  H    8.636762   9.330066   7.425961   6.361206   7.348464
    23  H    8.636762   9.330066   7.425961   6.361206   7.553342
    24  C    9.733081  10.525285   8.651688   7.381175   8.780377
    25  H    9.797536  10.616780   8.780377   7.460230   8.864259
    26  H    9.797558  10.616800   8.780395   7.460252   9.034846
    27  O   10.924863  11.674939   9.773673   8.586312   9.836050
    28  H   11.685723  12.462982  10.575619   9.336155  10.665421
                    6          7          8          9         10
     6  H    0.000000
     7  C    2.672991   0.000000
     8  H    2.432387   2.113033   0.000000
     9  H    2.994923   2.113033   1.747300   0.000000
    10  C    4.057692   1.500000   2.672995   2.672995   0.000000
    11  H    3.008826   1.069999   2.994929   2.432394   2.113033
    12  H    2.449485   1.069999   2.432394   2.994929   2.113033
    13  C    5.014462   2.449485   4.057697   4.057697   1.500003
    14  H    4.232790   2.113033   2.449493   3.008833   1.069999
    15  H    4.579255   2.113033   3.008833   2.449493   1.069999
    16  C    6.361197   3.774914   5.014472   5.014472   2.449491
    17  H    5.201255   2.672995   4.579260   4.232796   2.113033
    18  H    4.898979   2.672995   4.232796   4.579260   2.113033
    19  C    7.425958   4.898979   6.361206   6.361206   3.774920
    20  H    6.474293   4.057694   4.898985   5.201260   2.672995
    21  H    6.705932   4.057694   5.201260   4.898985   2.672995
    22  H    7.553342   5.014466   6.705938   6.474299   4.057697
    23  H    7.348464   5.014466   6.474299   6.705938   4.057697
    24  C    8.780377   6.220259   7.456412   7.456412   4.931699
    25  H    9.034828   6.398044   7.585156   7.381163   5.049257
    26  H    8.864273   6.398062   7.381186   7.585183   5.049278
    27  O    9.836055   7.324249   8.709834   8.709828   6.151803
    28  H   10.665425   8.131560   9.413602   9.413599   6.887839
                   11         12         13         14         15
    11  H    0.000000
    12  H    1.747300   0.000000
    13  C    2.672991   2.672991   0.000000
    14  H    2.994930   2.432396   2.113033   0.000000
    15  H    2.432396   2.994930   2.113033   1.747300   0.000000
    16  C    4.057694   4.057694   1.500000   2.672996   2.672996
    17  H    2.449493   3.008833   1.069995   2.994929   2.432394
    18  H    3.008833   2.449493   1.069995   2.432394   2.994929
    19  C    5.014470   5.014470   2.449493   4.057697   4.057697
    20  H    4.579255   4.232791   2.113030   2.449491   3.008831
    21  H    4.232791   4.579255   2.113030   3.008831   2.449491
    22  H    4.898979   5.201255   2.672995   4.579256   4.232792
    23  H    5.201255   4.898979   2.672995   4.232792   4.579256
    24  C    6.398053   6.398053   3.812040   5.043611   5.043611
    25  H    6.512695   6.743013   4.095735   5.232071   4.931688
    26  H    6.743029   6.512706   4.095748   4.931710   5.232099
    27  O    7.407291   7.407298   4.874902   6.323065   6.323057
    28  H    8.248026   8.248030   5.692183   6.992458   6.992453
                   16         17         18         19         20
    16  C    0.000000
    17  H    2.113022   0.000000
    18  H    2.113022   1.747300   0.000000
    19  C    1.499997   2.672991   2.672991   0.000000
    20  H    1.069999   2.994920   2.432383   2.113024   0.000000
    21  H    1.069999   2.432383   2.994920   2.113024   1.747300
    22  H    2.113024   2.449485   3.008826   1.069999   2.994920
    23  H    2.113024   3.008826   2.449485   1.069999   2.432384
    24  C    2.482261   4.095731   4.095731   1.540000   2.697772
    25  H    2.708323   4.272608   4.616080   2.148263   3.035555
    26  H    2.708343   4.616092   4.272612   2.148263   2.482272
    27  O    3.736930   4.998791   4.998801   2.425826   4.012619
    28  H    4.440825   5.857346   5.857352   3.267955   4.601420
                   21         22         23         24         25
    21  H    0.000000
    22  H    2.432384   0.000000
    23  H    2.994920   1.747300   0.000000
    24  C    2.697772   2.148262   2.148262   0.000000
    25  H    2.482250   2.468853   3.024609   1.070000   0.000000
    26  H    3.035585   3.024609   2.468838   1.070000   1.747303
    27  O    4.012606   2.666073   2.666092   1.430000   2.051796
    28  H    4.601412   3.547840   3.547850   1.970533   2.315960
                   26         27         28
    26  H    0.000000
    27  O    2.051796   0.000000
    28  H    2.315953   0.960000   0.000000
 Stoichiometry    C8H18O2
 Framework group  C1[X(C8H18O2)]
 Deg. of freedom    78
 Full point group                 C1      NOp   1
 Largest Abelian subgroup         C1      NOp   1
 Largest concise Abelian subgroup C1      NOp   1
                         Standard orientation:                         
 ---------------------------------------------------------------------
 Center     Atomic      Atomic             Coordinates (Angstroms)
 Number     Number       Type             X           Y           Z
 ---------------------------------------------------------------------
      1          8           0        5.426679    0.331948   -0.000005
      2          1           0        6.196857   -0.219083   -0.000004
      3          6           0        4.295518   -0.458541    0.000000
      4          6           0        3.075596    0.414265   -0.000003
      5          1           0        4.292086   -1.076294   -0.873648
      6          1           0        4.292088   -1.076286    0.873652
      7          6           0        1.846062   -0.444958    0.000002
      8          1           0        3.079020    1.032024    0.873645
      9          1           0        3.079017    1.032016   -0.873655
     10          6           0        0.626140    0.427848    0.000000
     11          1           0        1.842638   -1.062717   -0.873645
     12          1           0        1.842641   -1.062710    0.873655
     13          6           0       -0.603386   -0.431381    0.000005
     14          1           0        0.629564    1.045606    0.873648
     15          1           0        0.629562    1.045599   -0.873652
     16          6           0       -1.823313    0.441417    0.000003
     17          1           0       -0.606817   -1.049134   -0.873642
     18          1           0       -0.606815   -1.049127    0.873658
     19          6           0       -3.052841   -0.417799    0.000008
     20          1           0       -1.819890    1.059175    0.873651
     21          1           0       -1.819892    1.059168   -0.873649
     22          1           0       -3.056265   -1.035557   -0.873639
     23          1           0       -3.056263   -1.035550    0.873661
     24          6           0       -4.305301    0.478273    0.000006
     25          1           0       -4.301868    1.096040   -0.873637
     26          1           0       -4.301889    1.096017    0.873666
     27          8           0       -5.477447   -0.340857   -0.000018
     28          1           0       -6.258482    0.217341   -0.000011
 ---------------------------------------------------------------------
 Rotational constants (GHZ):      9.6236880      0.2621271      0.2583882
 Leave Link  202 at Mon Mar 14 13:54:46 2022, MaxMem=  536870912 cpu:       0.1
 (Enter /opt/gridunesp/dist/gaussian/g09/l301.exe)
 Standard basis: 6-31G(d,p) (6D, 7F)
 Ernie: Thresh=  0.10000D-02 Tol=  0.10000D-05 Strict=F.
 AO basis set in the form of general basis input (Overlap normalization):
      1 0
 S   6 1.00       0.000000000000
      0.5484671660D+04  0.1831074430D-02
      0.8252349460D+03  0.1395017220D-01
      0.1880469580D+03  0.6844507810D-01
      0.5296450000D+02  0.2327143360D+00
      0.1689757040D+02  0.4701928980D+00
      0.5799635340D+01  0.3585208530D+00
 SP   3 1.00       0.000000000000
      0.1553961625D+02 -0.1107775495D+00  0.7087426823D-01
      0.3599933586D+01 -0.1480262627D+00  0.3397528391D+00
      0.1013761750D+01  0.1130767015D+01  0.7271585773D+00
 SP   1 1.00       0.000000000000
      0.2700058226D+00  0.1000000000D+01  0.1000000000D+01
 D   1 1.00       0.000000000000
      0.8000000000D+00  0.1000000000D+01
 ****
      2 0
 S   3 1.00       0.000000000000
      0.1873113696D+02  0.3349460434D-01
      0.2825394365D+01  0.2347269535D+00
      0.6401216923D+00  0.8137573261D+00
 S   1 1.00       0.000000000000
      0.1612777588D+00  0.1000000000D+01
 P   1 1.00       0.000000000000
      0.1100000000D+01  0.1000000000D+01
 ****
      3 0
 S   6 1.00       0.000000000000
      0.3047524880D+04  0.1834737132D-02
      0.4573695180D+03  0.1403732281D-01
      0.1039486850D+03  0.6884262226D-01
      0.2921015530D+02  0.2321844432D+00
      0.9286662960D+01  0.4679413484D+00
      0.3163926960D+01  0.3623119853D+00
 SP   3 1.00       0.000000000000
      0.7868272350D+01 -0.1193324198D+00  0.6899906659D-01
      0.1881288540D+01 -0.1608541517D+00  0.3164239610D+00
      0.5442492580D+00  0.1143456438D+01  0.7443082909D+00
 SP   1 1.00       0.000000000000
      0.1687144782D+00  0.1000000000D+01  0.1000000000D+01
 D   1 1.00       0.000000000000
      0.8000000000D+00  0.1000000000D+01
 ****
      4 0
 S   6 1.00       0.000000000000
      0.3047524880D+04  0.1834737132D-02
      0.4573695180D+03  0.1403732281D-01
      0.1039486850D+03  0.6884262226D-01
      0.2921015530D+02  0.2321844432D+00
      0.9286662960D+01  0.4679413484D+00
      0.3163926960D+01  0.3623119853D+00
 SP   3 1.00       0.000000000000
      0.7868272350D+01 -0.1193324198D+00  0.6899906659D-01
      0.1881288540D+01 -0.1608541517D+00  0.3164239610D+00
      0.5442492580D+00  0.1143456438D+01  0.7443082909D+00
 SP   1 1.00       0.000000000000
      0.1687144782D+00  0.1000000000D+01  0.1000000000D+01
 D   1 1.00       0.000000000000
      0.8000000000D+00  0.1000000000D+01
 ****
      5 0
 S   3 1.00       0.000000000000
      0.1873113696D+02  0.3349460434D-01
      0.2825394365D+01  0.2347269535D+00
      0.6401216923D+00  0.8137573261D+00
 S   1 1.00       0.000000000000
      0.1612777588D+00  0.1000000000D+01
 P   1 1.00       0.000000000000
      0.1100000000D+01  0.1000000000D+01
 ****
      6 0
 S   3 1.00       0.000000000000
      0.1873113696D+02  0.3349460434D-01
      0.2825394365D+01  0.2347269535D+00
      0.6401216923D+00  0.8137573261D+00
 S   1 1.00       0.000000000000
      0.1612777588D+00  0.1000000000D+01
 P   1 1.00       0.000000000000
      0.1100000000D+01  0.1000000000D+01
 ****
      7 0
 S   6 1.00       0.000000000000
      0.3047524880D+04  0.1834737132D-02
      0.4573695180D+03  0.1403732281D-01
      0.1039486850D+03  0.6884262226D-01
      0.2921015530D+02  0.2321844432D+00
      0.9286662960D+01  0.4679413484D+00
      0.3163926960D+01  0.3623119853D+00
 SP   3 1.00       0.000000000000
      0.7868272350D+01 -0.1193324198D+00  0.6899906659D-01
      0.1881288540D+01 -0.1608541517D+00  0.3164239610D+00
      0.5442492580D+00  0.1143456438D+01  0.7443082909D+00
 SP   1 1.00       0.000000000000
      0.1687144782D+00  0.1000000000D+01  0.1000000000D+01
 D   1 1.00       0.000000000000
      0.8000000000D+00  0.1000000000D+01
 ****
      8 0
 S   3 1.00       0.000000000000
      0.1873113696D+02  0.3349460434D-01
      0.2825394365D+01  0.2347269535D+00
      0.6401216923D+00  0.8137573261D+00
 S   1 1.00       0.000000000000
      0.1612777588D+00  0.1000000000D+01
 P   1 1.00       0.000000000000
      0.1100000000D+01  0.1000000000D+01
 ****
      9 0
 S   3 1.00       0.000000000000
      0.1873113696D+02  0.3349460434D-01
      0.2825394365D+01  0.2347269535D+00
      0.6401216923D+00  0.8137573261D+00
 S   1 1.00       0.000000000000
      0.1612777588D+00  0.1000000000D+01
 P   1 1.00       0.000000000000
      0.1100000000D+01  0.1000000000D+01
 ****
     10 0
 S   6 1.00       0.000000000000
      0.3047524880D+04  0.1834737132D-02
      0.4573695180D+03  0.1403732281D-01
      0.1039486850D+03  0.6884262226D-01
      0.2921015530D+02  0.2321844432D+00
      0.9286662960D+01  0.4679413484D+00
      0.3163926960D+01  0.3623119853D+00
 SP   3 1.00       0.000000000000
      0.7868272350D+01 -0.1193324198D+00  0.6899906659D-01
      0.1881288540D+01 -0.1608541517D+00  0.3164239610D+00
      0.5442492580D+00  0.1143456438D+01  0.7443082909D+00
 SP   1 1.00       0.000000000000
      0.1687144782D+00  0.1000000000D+01  0.1000000000D+01
 D   1 1.00       0.000000000000
      0.8000000000D+00  0.1000000000D+01
 ****
     11 0
 S   3 1.00       0.000000000000
      0.1873113696D+02  0.3349460434D-01
      0.2825394365D+01  0.2347269535D+00
      0.6401216923D+00  0.8137573261D+00
 S   1 1.00       0.000000000000
      0.1612777588D+00  0.1000000000D+01
 P   1 1.00       0.000000000000
      0.1100000000D+01  0.1000000000D+01
 ****
     12 0
 S   3 1.00       0.000000000000
      0.1873113696D+02  0.3349460434D-01
      0.2825394365D+01  0.2347269535D+00
      0.6401216923D+00  0.8137573261D+00
 S   1 1.00       0.000000000000
      0.1612777588D+00  0.1000000000D+01
 P   1 1.00       0.000000000000
      0.1100000000D+01  0.1000000000D+01
 ****
     13 0
 S   6 1.00       0.000000000000
      0.3047524880D+04  0.1834737132D-02
      0.4573695180D+03  0.1403732281D-01
      0.1039486850D+03  0.6884262226D-01
      0.2921015530D+02  0.2321844432D+00
      0.9286662960D+01  0.4679413484D+00
      0.3163926960D+01  0.3623119853D+00
 SP   3 1.00       0.000000000000
      0.7868272350D+01 -0.1193324198D+00  0.6899906659D-01
      0.1881288540D+01 -0.1608541517D+00  0.3164239610D+00
      0.5442492580D+00  0.1143456438D+01  0.7443082909D+00
 SP   1 1.00       0.000000000000
      0.1687144782D+00  0.1000000000D+01  0.1000000000D+01
 D   1 1.00       0.000000000000
      0.8000000000D+00  0.1000000000D+01
 ****
     14 0
 S   3 1.00       0.000000000000
      0.1873113696D+02  0.3349460434D-01
      0.2825394365D+01  0.2347269535D+00
      0.6401216923D+00  0.8137573261D+00
 S   1 1.00       0.000000000000
      0.1612777588D+00  0.1000000000D+01
 P   1 1.00       0.000000000000
      0.1100000000D+01  0.1000000000D+01
 ****
     15 0
 S   3 1.00       0.000000000000
      0.1873113696D+02  0.3349460434D-01
      0.2825394365D+01  0.2347269535D+00
      0.6401216923D+00  0.8137573261D+00
 S   1 1.00       0.000000000000
      0.1612777588D+00  0.1000000000D+01
 P   1 1.00       0.000000000000
      0.1100000000D+01  0.1000000000D+01
 ****
     16 0
 S   6 1.00       0.000000000000
      0.3047524880D+04  0.1834737132D-02
      0.4573695180D+03  0.1403732281D-01
      0.1039486850D+03  0.6884262226D-01
      0.2921015530D+02  0.2321844432D+00
      0.9286662960D+01  0.4679413484D+00
      0.3163926960D+01  0.3623119853D+00
 SP   3 1.00       0.000000000000
      0.7868272350D+01 -0.1193324198D+00  0.6899906659D-01
      0.1881288540D+01 -0.1608541517D+00  0.3164239610D+00
      0.5442492580D+00  0.1143456438D+01  0.7443082909D+00
 SP   1 1.00       0.000000000000
      0.1687144782D+00  0.1000000000D+01  0.1000000000D+01
 D   1 1.00       0.000000000000
      0.8000000000D+00  0.1000000000D+01
 ****
     17 0
 S   3 1.00       0.000000000000
      0.1873113696D+02  0.3349460434D-01
      0.2825394365D+01  0.2347269535D+00
      0.6401216923D+00  0.8137573261D+00
 S   1 1.00       0.000000000000
      0.1612777588D+00  0.1000000000D+01
 P   1 1.00       0.000000000000
      0.1100000000D+01  0.1000000000D+01
 ****
     18 0
 S   3 1.00       0.000000000000
      0.1873113696D+02  0.3349460434D-01
      0.2825394365D+01  0.2347269535D+00
      0.6401216923D+00  0.8137573261D+00
 S   1 1.00       0.000000000000
      0.1612777588D+00  0.1000000000D+01
 P   1 1.00       0.000000000000
      0.1100000000D+01  0.1000000000D+01
 ****
     19 0
 S   6 1.00       0.000000000000
      0.3047524880D+04  0.1834737132D-02
      0.4573695180D+03  0.1403732281D-01
      0.1039486850D+03  0.6884262226D-01
      0.2921015530D+02  0.2321844432D+00
      0.9286662960D+01  0.4679413484D+00
      0.3163926960D+01  0.3623119853D+00
 SP   3 1.00       0.000000000000
      0.7868272350D+01 -0.1193324198D+00  0.6899906659D-01
      0.1881288540D+01 -0.1608541517D+00  0.3164239610D+00
      0.5442492580D+00  0.1143456438D+01  0.7443082909D+00
 SP   1 1.00       0.000000000000
      0.1687144782D+00  0.1000000000D+01  0.1000000000D+01
 D   1 1.00       0.000000000000
      0.8000000000D+00  0.1000000000D+01
 ****
     20 0
 S   3 1.00       0.000000000000
      0.1873113696D+02  0.3349460434D-01
      0.2825394365D+01  0.2347269535D+00
      0.6401216923D+00  0.8137573261D+00
 S   1 1.00       0.000000000000
      0.1612777588D+00  0.1000000000D+01
 P   1 1.00       0.000000000000
      0.1100000000D+01  0.1000000000D+01
 ****
     21 0
 S   3 1.00       0.000000000000
      0.1873113696D+02  0.3349460434D-01
      0.2825394365D+01  0.2347269535D+00
      0.6401216923D+00  0.8137573261D+00
 S   1 1.00       0.000000000000
      0.1612777588D+00  0.1000000000D+01
 P   1 1.00       0.000000000000
      0.1100000000D+01  0.1000000000D+01
 ****
     22 0
 S   3 1.00       0.000000000000
      0.1873113696D+02  0.3349460434D-01
      0.2825394365D+01  0.2347269535D+00
      0.6401216923D+00  0.8137573261D+00
 S   1 1.00       0.000000000000
      0.1612777588D+00  0.1000000000D+01
 P   1 1.00       0.000000000000
      0.1100000000D+01  0.1000000000D+01
 ****
     23 0
 S   3 1.00       0.000000000000
      0.1873113696D+02  0.3349460434D-01
      0.2825394365D+01  0.2347269535D+00
      0.6401216923D+00  0.8137573261D+00
 S   1 1.00       0.000000000000
      0.1612777588D+00  0.1000000000D+01
 P   1 1.00       0.000000000000
      0.1100000000D+01  0.1000000000D+01
 ****
     24 0
 S   6 1.00       0.000000000000
      0.3047524880D+04  0.1834737132D-02
      0.4573695180D+03  0.1403732281D-01
      0.1039486850D+03  0.6884262226D-01
      0.2921015530D+02  0.2321844432D+00
      0.9286662960D+01  0.4679413484D+00
      0.3163926960D+01  0.3623119853D+00
 SP   3 1.00       0.000000000000
      0.7868272350D+01 -0.1193324198D+00  0.6899906659D-01
      0.1881288540D+01 -0.1608541517D+00  0.3164239610D+00
      0.5442492580D+00  0.1143456438D+01  0.7443082909D+00
 SP   1 1.00       0.000000000000
      0.1687144782D+00  0.1000000000D+01  0.1000000000D+01
 D   1 1.00       0.000000000000
      0.8000000000D+00  0.1000000000D+01
 ****
     25 0
 S   3 1.00       0.000000000000
      0.1873113696D+02  0.3349460434D-01
      0.2825394365D+01  0.2347269535D+00
      0.6401216923D+00  0.8137573261D+00
 S   1 1.00       0.000000000000
      0.1612777588D+00  0.1000000000D+01
 P   1 1.00       0.000000000000
      0.1100000000D+01  0.1000000000D+01
 ****
     26 0
 S   3 1.00       0.000000000000
      0.1873113696D+02  0.3349460434D-01
      0.2825394365D+01  0.2347269535D+00
      0.6401216923D+00  0.8137573261D+00
 S   1 1.00       0.000000000000
      0.1612777588D+00  0.1000000000D+01
 P   1 1.00       0.000000000000
      0.1100000000D+01  0.1000000000D+01
 ****
     27 0
 S   6 1.00       0.000000000000
      0.5484671660D+04  0.1831074430D-02
      0.8252349460D+03  0.1395017220D-01
      0.1880469580D+03  0.6844507810D-01
      0.5296450000D+02  0.2327143360D+00
      0.1689757040D+02  0.4701928980D+00
      0.5799635340D+01  0.3585208530D+00
 SP   3 1.00       0.000000000000
      0.1553961625D+02 -0.1107775495D+00  0.7087426823D-01
      0.3599933586D+01 -0.1480262627D+00  0.3397528391D+00
      0.1013761750D+01  0.1130767015D+01  0.7271585773D+00
 SP   1 1.00       0.000000000000
      0.2700058226D+00  0.1000000000D+01  0.1000000000D+01
 D   1 1.00       0.000000000000
      0.8000000000D+00  0.1000000000D+01
 ****
     28 0
 S   3 1.00       0.000000000000
      0.1873113696D+02  0.3349460434D-01
      0.2825394365D+01  0.2347269535D+00
      0.6401216923D+00  0.8137573261D+00
 S   1 1.00       0.000000000000
      0.1612777588D+00  0.1000000000D+01
 P   1 1.00       0.000000000000
      0.1100000000D+01  0.1000000000D+01
 ****

 There are   240 symmetry adapted basis functions of A   symmetry.
 Integral buffers will be    131072 words long.
 Raffenetti 2 integral format.
 Two-electron integral symmetry is turned on.
   240 basis functions,   406 primitive gaussians,   240 cartesian basis functions
    41 alpha electrons       41 beta electrons
       nuclear repulsion energy       531.4929656850 Hartrees.
 IExCor=  402 DFT=T Ex+Corr=B3LYP ExCW=0 ScaHFX=  0.200000
 ScaDFX=  0.800000  0.720000  1.000000  0.810000 ScalE2=  1.000000  1.000000
 IRadAn=      0 IRanWt=     -1 IRanGd=            0 ICorTp=0
 NAtoms=   28 NActive=   28 NUniq=   28 SFac= 7.50D-01 NAtFMM=   80 NAOKFM=F Big=F
 ------------------------------------------------------------------------------
 Polarizable Continuum Model (PCM)
 =================================
 Model                : PCM.
 Atomic radii         : UFF (Universal Force Field).
 Polarization charges : Total charges.
 Charge compensation  : None.
 Solution method      : Matrix inversion.
 Cavity type          : Scaled VdW (van der Waals Surface) (Alpha=1.100).
 Cavity algorithm     : GePol (No added spheres)
                        Default sphere list used, NSphG=   28.
                        Lebedev-Laikov grids with approx.  5.0 points / Ang**2.
                        Smoothing algorithm: Karplus/York (Gamma=1.0000).
                        Polarization charges: spherical gaussians, with
                                              point-specific exponents (IZeta= 3).
                        Self-potential: point-specific (ISelfS= 7).
                        Self-field    : sphere-specific E.n sum rule (ISelfD= 2).
 1st derivatives      : Analytical E(r).r(x)/FMM algorithm (CHGder, D1EAlg=3).
                        Cavity 1st derivative terms included.
 Solvent              : Water, Eps=  78.355300 Eps(inf)=   1.777849
 ------------------------------------------------------------------------------
 GePol: Number of generator spheres                  =      28
 GePol: Total number of spheres                      =      28
 GePol: Number of exposed spheres                    =      28 (100.00%)
 GePol: Number of points                             =    1957
 GePol: Average weight of points                     =       0.13
 GePol: Minimum weight of points                     =   0.57D-11
 GePol: Maximum weight of points                     =    0.20577
 GePol: Number of points with low weight             =      95
 GePol: Fraction of low-weight points (<1% of avg)   =       4.85%
 GePol: Cavity surface area                          =    260.015 Ang**2
 GePol: Cavity volume                                =    252.823 Ang**3
 Leave Link  301 at Mon Mar 14 13:54:46 2022, MaxMem=  536870912 cpu:       0.4
 (Enter /opt/gridunesp/dist/gaussian/g09/l302.exe)
 NPDir=0 NMtPBC=     1 NCelOv=     1 NCel=       1 NClECP=     1 NCelD=      1
         NCelK=      1 NCelE2=     1 NClLst=     1 CellRange=     0.0.
 One-electron integrals computed using PRISM.
 NBasis=   240 RedAO= T  NBF=   240
 NBsUse=   240 1.00D-06 NBFU=   240
 Precomputing XC quadrature grid using
 IXCGrd= 2 IRadAn=           0 IRanWt=          -1 IRanGd=           0 AccXCQ= 1.00D-10.
 NRdTot=    1782 NPtTot=      227484 NUsed=      240335 NTot=      240367
 NSgBfM=   234   234   234   234   234 NAtAll=    28    28.
 Leave Link  302 at Mon Mar 14 13:54:46 2022, MaxMem=  536870912 cpu:       1.9
 (Enter /opt/gridunesp/dist/gaussian/g09/l303.exe)
 DipDrv:  MaxL=1.
 Leave Link  303 at Mon Mar 14 13:54:46 2022, MaxMem=  536870912 cpu:       0.3
 (Enter /opt/gridunesp/dist/gaussian/g09/l401.exe)
 Harris functional with IExCor=  402 diagonalized for initial guess.
 ExpMin= 1.61D-01 ExpMax= 5.48D+03 ExpMxC= 8.25D+02 IAcc=1 IRadAn=         1 AccDes= 0.00D+00
 HarFok:  IExCor=  402 AccDes= 0.00D+00 IRadAn=         1 IDoV= 1
 ScaDFX=  1.000000  1.000000  1.000000  1.000000
 FoFCou: FMM=F IPFlag=           0 FMFlag=      100000 FMFlg1=           0
         NFxFlg=           0 DoJE=T BraDBF=F KetDBF=T FulRan=T
         Omega=  0.000000  0.000000  1.000000  0.000000  0.000000 ICntrl=     500 IOpCl=  0
         NMat0=    1 NMatS0=    1 NMatT0=    0 NMatD0=    1 NMtDS0=    0 NMtDT0=    0
         I1Cent=           4 NGrid=           0.
 Petite list used in FoFCou.
 Harris En= -466.289513084203    
 Initial guess orbital symmetries:
       Occupied  (A) (A) (A) (A) (A) (A) (A) (A) (A) (A) (A) (A)
                 (A) (A) (A) (A) (A) (A) (A) (A) (A) (A) (A) (A)
                 (A) (A) (A) (A) (A) (A) (A) (A) (A) (A) (A) (A)
                 (A) (A) (A) (A) (A)
       Virtual   (A) (A) (A) (A) (A) (A) (A) (A) (A) (A) (A) (A)
                 (A) (A) (A) (A) (A) (A) (A) (A) (A) (A) (A) (A)
                 (A) (A) (A) (A) (A) (A) (A) (A) (A) (A) (A) (A)
                 (A) (A) (A) (A) (A) (A) (A) (A) (A) (A) (A) (A)
                 (A) (A) (A) (A) (A) (A) (A) (A) (A) (A) (A) (A)
                 (A) (A) (A) (A) (A) (A) (A) (A) (A) (A) (A) (A)
                 (A) (A) (A) (A) (A) (A) (A) (A) (A) (A) (A) (A)
                 (A) (A) (A) (A) (A) (A) (A) (A) (A) (A) (A) (A)
                 (A) (A) (A) (A) (A) (A) (A) (A) (A) (A) (A) (A)
                 (A) (A) (A) (A) (A) (A) (A) (A) (A) (A) (A) (A)
                 (A) (A) (A) (A) (A) (A) (A) (A) (A) (A) (A) (A)
                 (A) (A) (A) (A) (A) (A) (A) (A) (A) (A) (A) (A)
                 (A) (A) (A) (A) (A) (A) (A) (A) (A) (A) (A) (A)
                 (A) (A) (A) (A) (A) (A) (A) (A) (A) (A) (A) (A)
                 (A) (A) (A) (A) (A) (A) (A) (A) (A) (A) (A) (A)
                 (A) (A) (A) (A) (A) (A) (A) (A) (A) (A) (A) (A)
                 (A) (A) (A) (A) (A) (A) (A)
 The electronic state of the initial guess is 1-A.
 Leave Link  401 at Mon Mar 14 13:54:47 2022, MaxMem=  536870912 cpu:       3.7
 (Enter /opt/gridunesp/dist/gaussian/g09/l502.exe)
 Closed shell SCF:
 Requested convergence on RMS density matrix=1.00D-08 within 128 cycles.
 Requested convergence on MAX density matrix=1.00D-06.
 Requested convergence on             energy=1.00D-06.
 No special actions if energy rises.
 Using DIIS extrapolation, IDIIS=  1040.
 Integral symmetry usage will be decided dynamically.
       240070 words used for storage of precomputed grid.
 Keep R1 ints in memory in canonical form, NReq=426143493.
 IEnd=      434766 IEndB=      434766 NGot=   536870912 MDV=   118312939
 LenX=   118312939 LenY=   118254898
 Symmetry not used in FoFDir.
 MinBra= 0 MaxBra= 2 Meth= 1.
 IRaf=       0 NMat=   1 IRICut=       1 DoRegI=T DoRafI=F ISym2E= 0 JSym2E=0.

 Cycle   1  Pass 1  IDiag  1:
 E= -465.731119831447    
 DIIS: error= 3.79D-02 at cycle   1 NSaved=   1.
 NSaved= 1 IEnMin= 1 EnMin= -465.731119831447     IErMin= 1 ErrMin= 3.79D-02
 ErrMax= 3.79D-02 EMaxC= 1.00D-01 BMatC= 3.99D-01 BMatP= 3.99D-01
 IDIUse=3 WtCom= 6.21D-01 WtEn= 3.79D-01
 Coeff-Com:  0.100D+01
 Coeff-En:   0.100D+01
 Coeff:      0.100D+01
 Gap=     0.341 Goal=   None    Shift=    0.000
 GapD=    0.341 DampG=1.000 DampE=0.500 DampFc=0.5000 IDamp=-1.
 Damping current iteration by 5.00D-01
 RMSDP=5.93D-03 MaxDP=1.38D-01              OVMax= 1.99D-01

 Cycle   2  Pass 1  IDiag  1:
 E= -465.915843612685     Delta-E=       -0.184723781238 Rises=F Damp=T
 DIIS: error= 8.87D-03 at cycle   2 NSaved=   2.
 NSaved= 2 IEnMin= 2 EnMin= -465.915843612685     IErMin= 2 ErrMin= 8.87D-03
 ErrMax= 8.87D-03 EMaxC= 1.00D-01 BMatC= 1.47D-02 BMatP= 3.99D-01
 IDIUse=3 WtCom= 9.11D-01 WtEn= 8.87D-02
 Coeff-Com:  0.734D-01 0.927D+00
 Coeff-En:   0.104D+00 0.896D+00
 Coeff:      0.761D-01 0.924D+00
 Gap=     0.374 Goal=   None    Shift=    0.000
 RMSDP=7.58D-04 MaxDP=1.52D-02 DE=-1.85D-01 OVMax= 9.79D-02

 Cycle   3  Pass 1  IDiag  1:
 E= -466.137578105026     Delta-E=       -0.221734492341 Rises=F Damp=F
 DIIS: error= 3.01D-03 at cycle   3 NSaved=   3.
 NSaved= 3 IEnMin= 3 EnMin= -466.137578105026     IErMin= 3 ErrMin= 3.01D-03
 ErrMax= 3.01D-03 EMaxC= 1.00D-01 BMatC= 2.88D-03 BMatP= 1.47D-02
 IDIUse=3 WtCom= 9.70D-01 WtEn= 3.01D-02
 Coeff-Com:  0.282D-02 0.255D+00 0.742D+00
 Coeff-En:   0.000D+00 0.000D+00 0.100D+01
 Coeff:      0.274D-02 0.247D+00 0.750D+00
 Gap=     0.348 Goal=   None    Shift=    0.000
 RMSDP=2.92D-04 MaxDP=1.23D-02 DE=-2.22D-01 OVMax= 1.31D-02

 Cycle   4  Pass 1  IDiag  1:
 E= -466.138565616574     Delta-E=       -0.000987511549 Rises=F Damp=F
 DIIS: error= 2.17D-03 at cycle   4 NSaved=   4.
 NSaved= 4 IEnMin= 4 EnMin= -466.138565616574     IErMin= 4 ErrMin= 2.17D-03
 ErrMax= 2.17D-03 EMaxC= 1.00D-01 BMatC= 1.57D-03 BMatP= 2.88D-03
 IDIUse=3 WtCom= 9.78D-01 WtEn= 2.17D-02
 Coeff-Com: -0.344D-02 0.434D-01 0.432D+00 0.528D+00
 Coeff-En:   0.000D+00 0.000D+00 0.366D+00 0.634D+00
 Coeff:     -0.336D-02 0.424D-01 0.430D+00 0.531D+00
 Gap=     0.351 Goal=   None    Shift=    0.000
 RMSDP=1.38D-04 MaxDP=5.66D-03 DE=-9.88D-04 OVMax= 5.72D-03

 Cycle   5  Pass 1  IDiag  1:
 E= -466.139788552723     Delta-E=       -0.001222936148 Rises=F Damp=F
 DIIS: error= 1.60D-04 at cycle   5 NSaved=   5.
 NSaved= 5 IEnMin= 5 EnMin= -466.139788552723     IErMin= 5 ErrMin= 1.60D-04
 ErrMax= 1.60D-04 EMaxC= 1.00D-01 BMatC= 1.15D-05 BMatP= 1.57D-03
 IDIUse=3 WtCom= 9.98D-01 WtEn= 1.60D-03
 Coeff-Com: -0.651D-03 0.106D-02 0.894D-01 0.149D+00 0.761D+00
 Coeff-En:   0.000D+00 0.000D+00 0.000D+00 0.000D+00 0.100D+01
 Coeff:     -0.650D-03 0.106D-02 0.892D-01 0.149D+00 0.762D+00
 Gap=     0.350 Goal=   None    Shift=    0.000
 RMSDP=1.56D-05 MaxDP=5.97D-04 DE=-1.22D-03 OVMax= 5.38D-04

 Cycle   6  Pass 1  IDiag  1:
 E= -466.139796881619     Delta-E=       -0.000008328896 Rises=F Damp=F
 DIIS: error= 7.74D-05 at cycle   6 NSaved=   6.
 NSaved= 6 IEnMin= 6 EnMin= -466.139796881619     IErMin= 6 ErrMin= 7.74D-05
 ErrMax= 7.74D-05 EMaxC= 1.00D-01 BMatC= 1.67D-06 BMatP= 1.15D-05
 IDIUse=1 WtCom= 1.00D+00 WtEn= 0.00D+00
 Coeff-Com: -0.224D-03-0.739D-03 0.355D-01 0.642D-01 0.396D+00 0.505D+00
 Coeff:     -0.224D-03-0.739D-03 0.355D-01 0.642D-01 0.396D+00 0.505D+00
 Gap=     0.350 Goal=   None    Shift=    0.000
 RMSDP=4.77D-06 MaxDP=2.02D-04 DE=-8.33D-06 OVMax= 2.02D-04

 Cycle   7  Pass 1  IDiag  1:
 E= -466.139798245660     Delta-E=       -0.000001364040 Rises=F Damp=F
 DIIS: error= 9.68D-06 at cycle   7 NSaved=   7.
 NSaved= 7 IEnMin= 7 EnMin= -466.139798245660     IErMin= 7 ErrMin= 9.68D-06
 ErrMax= 9.68D-06 EMaxC= 1.00D-01 BMatC= 3.16D-08 BMatP= 1.67D-06
 IDIUse=1 WtCom= 1.00D+00 WtEn= 0.00D+00
 Coeff-Com:  0.119D-04-0.330D-03 0.345D-02 0.768D-02 0.589D-01 0.150D+00
 Coeff-Com:  0.781D+00
 Coeff:      0.119D-04-0.330D-03 0.345D-02 0.768D-02 0.589D-01 0.150D+00
 Coeff:      0.781D+00
 Gap=     0.350 Goal=   None    Shift=    0.000
 RMSDP=8.09D-07 MaxDP=3.87D-05 DE=-1.36D-06 OVMax= 3.25D-05

 Cycle   8  Pass 1  IDiag  1:
 E= -466.139798263617     Delta-E=       -0.000000017957 Rises=F Damp=F
 DIIS: error= 6.03D-06 at cycle   8 NSaved=   8.
 NSaved= 8 IEnMin= 8 EnMin= -466.139798263617     IErMin= 8 ErrMin= 6.03D-06
 ErrMax= 6.03D-06 EMaxC= 1.00D-01 BMatC= 7.62D-09 BMatP= 3.16D-08
 IDIUse=1 WtCom= 1.00D+00 WtEn= 0.00D+00
 Coeff-Com:  0.229D-04-0.124D-03-0.463D-03-0.137D-04 0.583D-02 0.457D-01
 Coeff-Com:  0.411D+00 0.538D+00
 Coeff:      0.229D-04-0.124D-03-0.463D-03-0.137D-04 0.583D-02 0.457D-01
 Coeff:      0.411D+00 0.538D+00
 Gap=     0.350 Goal=   None    Shift=    0.000
 RMSDP=3.41D-07 MaxDP=1.45D-05 DE=-1.80D-08 OVMax= 1.27D-05

 Cycle   9  Pass 1  IDiag  1:
 E= -466.139798269453     Delta-E=       -0.000000005836 Rises=F Damp=F
 DIIS: error= 9.01D-07 at cycle   9 NSaved=   9.
 NSaved= 9 IEnMin= 9 EnMin= -466.139798269453     IErMin= 9 ErrMin= 9.01D-07
 ErrMax= 9.01D-07 EMaxC= 1.00D-01 BMatC= 2.41D-10 BMatP= 7.62D-09
 IDIUse=1 WtCom= 1.00D+00 WtEn= 0.00D+00
 Coeff-Com:  0.730D-05-0.204D-04-0.462D-03-0.607D-03-0.264D-02 0.495D-02
 Coeff-Com:  0.952D-01 0.210D+00 0.693D+00
 Coeff:      0.730D-05-0.204D-04-0.462D-03-0.607D-03-0.264D-02 0.495D-02
 Coeff:      0.952D-01 0.210D+00 0.693D+00
 Gap=     0.350 Goal=   None    Shift=    0.000
 RMSDP=5.71D-08 MaxDP=1.84D-06 DE=-5.84D-09 OVMax= 2.36D-06

 Cycle  10  Pass 1  IDiag  1:
 E= -466.139798269657     Delta-E=       -0.000000000204 Rises=F Damp=F
 DIIS: error= 6.79D-08 at cycle  10 NSaved=  10.
 NSaved=10 IEnMin=10 EnMin= -466.139798269657     IErMin=10 ErrMin= 6.79D-08
 ErrMax= 6.79D-08 EMaxC= 1.00D-01 BMatC= 1.64D-12 BMatP= 2.41D-10
 IDIUse=1 WtCom= 1.00D+00 WtEn= 0.00D+00
 Coeff-Com:  0.351D-06-0.271D-06-0.707D-04-0.963D-04-0.565D-03-0.159D-03
 Coeff-Com:  0.858D-02 0.264D-01 0.118D+00 0.848D+00
 Coeff:      0.351D-06-0.271D-06-0.707D-04-0.963D-04-0.565D-03-0.159D-03
 Coeff:      0.858D-02 0.264D-01 0.118D+00 0.848D+00
 Gap=     0.350 Goal=   None    Shift=    0.000
 RMSDP=7.70D-09 MaxDP=3.05D-07 DE=-2.04D-10 OVMax= 3.60D-07

 Error on total polarization charges =  0.00887
 SCF Done:  E(RB3LYP) =  -466.139798270     A.U. after   10 cycles
             Convg  =    0.7700D-08             -V/T =  2.0069
 KE= 4.629385773262D+02 PE=-2.148738051797D+03 EE= 6.881667105162D+02
 Leave Link  502 at Mon Mar 14 13:55:15 2022, MaxMem=  536870912 cpu:     224.7
 (Enter /opt/gridunesp/dist/gaussian/g09/l601.exe)
 Copying SCF densities to generalized density rwf, IOpCl= 0 IROHF=0.

 **********************************************************************

            Population analysis using the SCF density.

 **********************************************************************

 Orbital symmetries:
       Occupied  (A) (A) (A) (A) (A) (A) (A) (A) (A) (A) (A) (A)
                 (A) (A) (A) (A) (A) (A) (A) (A) (A) (A) (A) (A)
                 (A) (A) (A) (A) (A) (A) (A) (A) (A) (A) (A) (A)
                 (A) (A) (A) (A) (A)
       Virtual   (A) (A) (A) (A) (A) (A) (A) (A) (A) (A) (A) (A)
                 (A) (A) (A) (A) (A) (A) (A) (A) (A) (A) (A) (A)
                 (A) (A) (A) (A) (A) (A) (A) (A) (A) (A) (A) (A)
                 (A) (A) (A) (A) (A) (A) (A) (A) (A) (A) (A) (A)
                 (A) (A) (A) (A) (A) (A) (A) (A) (A) (A) (A) (A)
                 (A) (A) (A) (A) (A) (A) (A) (A) (A) (A) (A) (A)
                 (A) (A) (A) (A) (A) (A) (A) (A) (A) (A) (A) (A)
                 (A) (A) (A) (A) (A) (A) (A) (A) (A) (A) (A) (A)
                 (A) (A) (A) (A) (A) (A) (A) (A) (A) (A) (A) (A)
                 (A) (A) (A) (A) (A) (A) (A) (A) (A) (A) (A) (A)
                 (A) (A) (A) (A) (A) (A) (A) (A) (A) (A) (A) (A)
                 (A) (A) (A) (A) (A) (A) (A) (A) (A) (A) (A) (A)
                 (A) (A) (A) (A) (A) (A) (A) (A) (A) (A) (A) (A)
                 (A) (A) (A) (A) (A) (A) (A) (A) (A) (A) (A) (A)
                 (A) (A) (A) (A) (A) (A) (A) (A) (A) (A) (A) (A)
                 (A) (A) (A) (A) (A) (A) (A) (A) (A) (A) (A) (A)
                 (A) (A) (A) (A) (A) (A) (A)
 The electronic state is 1-A.
 Alpha  occ. eigenvalues --  -19.13346 -19.13227 -10.21573 -10.20939 -10.16546
 Alpha  occ. eigenvalues --  -10.16191 -10.16104 -10.16063 -10.15895 -10.15854
 Alpha  occ. eigenvalues --   -1.02398  -1.00493  -0.82225  -0.79274  -0.74547
 Alpha  occ. eigenvalues --   -0.68948  -0.63268  -0.59019  -0.57991  -0.57628
 Alpha  occ. eigenvalues --   -0.50988  -0.50019  -0.49747  -0.48422  -0.45645
 Alpha  occ. eigenvalues --   -0.42540  -0.42098  -0.41823  -0.38201  -0.38066
 Alpha  occ. eigenvalues --   -0.37206  -0.34615  -0.34584  -0.33056  -0.32819
 Alpha  occ. eigenvalues --   -0.32590  -0.32495  -0.31600  -0.28362  -0.26242
 Alpha  occ. eigenvalues --   -0.26050
 Alpha virt. eigenvalues --    0.08969   0.09109   0.09529   0.10834   0.11932
 Alpha virt. eigenvalues --    0.13453   0.13808   0.14811   0.16520   0.17472
 Alpha virt. eigenvalues --    0.18997   0.19941   0.20637   0.21050   0.21121
 Alpha virt. eigenvalues --    0.21642   0.21681   0.22975   0.23138   0.23502
 Alpha virt. eigenvalues --    0.24258   0.24638   0.26984   0.28164   0.28797
 Alpha virt. eigenvalues --    0.35746   0.36823   0.45535   0.51543   0.53004
 Alpha virt. eigenvalues --    0.54932   0.56183   0.56640   0.58049   0.58483
 Alpha virt. eigenvalues --    0.60047   0.60531   0.61288   0.64648   0.67089
 Alpha virt. eigenvalues --    0.69408   0.70455   0.73006   0.73997   0.74320
 Alpha virt. eigenvalues --    0.75660   0.76427   0.80462   0.80960   0.81041
 Alpha virt. eigenvalues --    0.81123   0.83020   0.83859   0.84713   0.87438
 Alpha virt. eigenvalues --    0.88057   0.90366   0.91860   0.92390   0.94399
 Alpha virt. eigenvalues --    0.94674   0.94782   0.95946   0.96582   0.97251
 Alpha virt. eigenvalues --    0.97774   0.98885   0.99029   0.99278   0.99573
 Alpha virt. eigenvalues --    1.00289   1.02240   1.11397   1.18004   1.21350
 Alpha virt. eigenvalues --    1.24020   1.26491   1.29384   1.32844   1.33430
 Alpha virt. eigenvalues --    1.38347   1.40174   1.43955   1.46386   1.48481
 Alpha virt. eigenvalues --    1.52349   1.54440   1.55138   1.59111   1.60294
 Alpha virt. eigenvalues --    1.61466   1.62555   1.67018   1.68903   1.70093
 Alpha virt. eigenvalues --    1.70712   1.72238   1.72665   1.77105   1.85499
 Alpha virt. eigenvalues --    1.87450   1.88898   1.91330   1.92111   1.93179
 Alpha virt. eigenvalues --    1.93721   1.96356   1.97219   1.99263   2.00339
 Alpha virt. eigenvalues --    2.02773   2.05865   2.08973   2.09710   2.10184
 Alpha virt. eigenvalues --    2.11105   2.11477   2.13903   2.13959   2.14673
 Alpha virt. eigenvalues --    2.20755   2.21201   2.23571   2.26287   2.27137
 Alpha virt. eigenvalues --    2.29153   2.31444   2.33326   2.34048   2.34368
 Alpha virt. eigenvalues --    2.35482   2.36860   2.37864   2.38097   2.42050
 Alpha virt. eigenvalues --    2.42563   2.45541   2.46903   2.47787   2.49061
 Alpha virt. eigenvalues --    2.54344   2.56188   2.61747   2.64415   2.65343
 Alpha virt. eigenvalues --    2.68963   2.69057   2.71184   2.71399   2.72478
 Alpha virt. eigenvalues --    2.74377   2.75598   2.77474   2.78000   2.80916
 Alpha virt. eigenvalues --    2.85929   2.86701   2.88373   2.91720   2.92132
 Alpha virt. eigenvalues --    2.92406   2.96113   2.97094   2.97543   2.98068
 Alpha virt. eigenvalues --    2.99957   3.00291   3.01581   3.01715   3.05064
 Alpha virt. eigenvalues --    3.08290   3.30120   3.32123   3.32173   3.32760
 Alpha virt. eigenvalues --    3.33785   3.35911   3.38416   3.39185   3.43605
 Alpha virt. eigenvalues --    3.46425   3.48479   3.52640   3.54287   3.56222
 Alpha virt. eigenvalues --    3.60701   3.63617   3.65338   3.65540   3.98016
 Alpha virt. eigenvalues --    4.03179   4.28176   4.34077   4.41685   4.49099
 Alpha virt. eigenvalues --    4.55623   4.63107   4.73689   4.85882
     Molecular Orbital Coefficients:
                           1         2         3         4         5
                           O         O         O         O         O
     Eigenvalues --   -19.13346 -19.13227 -10.21573 -10.20939 -10.16546
   1 1   O  1S          0.00000   0.99275  -0.00001  -0.00013   0.00000
   2        2S          0.00000   0.02599  -0.00003  -0.00020   0.00001
   3        2PX         0.00000   0.00022   0.00000   0.00009   0.00000
   4        2PY         0.00000  -0.00106   0.00000   0.00009   0.00000
   5        2PZ         0.00000   0.00000   0.00000   0.00000   0.00000
   6        3S          0.00002   0.01211   0.00014   0.00219  -0.00008
   7        3PX         0.00000  -0.00054  -0.00005  -0.00019   0.00000
   8        3PY        -0.00001  -0.00023  -0.00002   0.00026   0.00003
   9        3PZ         0.00000   0.00000   0.00000   0.00000   0.00000
  10        4XX         0.00000  -0.00796  -0.00001  -0.00061   0.00000
  11        4YY         0.00000  -0.00803  -0.00002  -0.00044   0.00000
  12        4ZZ         0.00000  -0.00807  -0.00002   0.00002   0.00000
  13        4XY         0.00000  -0.00014   0.00001  -0.00036   0.00000
  14        4XZ         0.00000   0.00000   0.00000   0.00000   0.00000
  15        4YZ         0.00000   0.00000   0.00000   0.00000   0.00000
  16 2   H  1S          0.00000   0.00023   0.00000   0.00012   0.00001
  17        2S         -0.00001  -0.00124   0.00002   0.00014   0.00002
  18        3PX         0.00000   0.00027   0.00000  -0.00017  -0.00001
  19        3PY         0.00000  -0.00010   0.00000  -0.00004   0.00000
  20        3PZ         0.00000   0.00000   0.00000   0.00000   0.00000
  21 3   C  1S          0.00000   0.00002  -0.00004   0.99301   0.00000
  22        2S          0.00001   0.00037  -0.00001   0.04996  -0.00005
  23        2PX         0.00000   0.00027   0.00001   0.00058  -0.00001
  24        2PY         0.00000   0.00023   0.00000   0.00030   0.00001
  25        2PZ         0.00000   0.00000   0.00000   0.00000   0.00000
  26        3S         -0.00013  -0.00249  -0.00003  -0.01841   0.00044
  27        3PX         0.00004  -0.00045  -0.00010   0.00217  -0.00011
  28        3PY        -0.00004  -0.00113  -0.00006  -0.00077   0.00012
  29        3PZ         0.00000   0.00000   0.00000   0.00000   0.00000
  30        4XX         0.00000   0.00007  -0.00001  -0.00884   0.00000
  31        4YY         0.00000   0.00012  -0.00001  -0.00886  -0.00001
  32        4ZZ         0.00000   0.00009  -0.00001  -0.00881  -0.00001
  33        4XY         0.00000   0.00009  -0.00001   0.00025  -0.00001
  34        4XZ         0.00000   0.00000   0.00000   0.00000   0.00000
  35        4YZ         0.00000   0.00000   0.00000   0.00000   0.00000
  36 4   C  1S          0.00000  -0.00003  -0.00001   0.00258  -0.00005
  37        2S          0.00000  -0.00009  -0.00005  -0.00020  -0.00002
  38        2PX        -0.00001   0.00008   0.00000  -0.00014   0.00003
  39        2PY         0.00000   0.00002  -0.00001   0.00009  -0.00002
  40        2PZ         0.00000   0.00000   0.00000   0.00000   0.00000
  41        3S          0.00009   0.00204   0.00037   0.00543  -0.00007
  42        3PX         0.00007  -0.00054  -0.00014   0.00263  -0.00037
  43        3PY        -0.00007  -0.00087  -0.00008  -0.00181   0.00018
  44        3PZ         0.00000   0.00000   0.00000   0.00000   0.00000
  45        4XX         0.00000  -0.00008   0.00000  -0.00025   0.00000
  46        4YY         0.00000  -0.00002  -0.00001  -0.00026  -0.00001
  47        4ZZ         0.00000  -0.00006  -0.00001  -0.00019  -0.00001
  48        4XY         0.00000   0.00001   0.00001   0.00005   0.00001
  49        4XZ         0.00000   0.00000   0.00000   0.00000   0.00000
  50        4YZ         0.00000   0.00000   0.00000   0.00000   0.00000
  51 5   H  1S          0.00000   0.00000   0.00000   0.00000  -0.00001
  52        2S          0.00000  -0.00002   0.00000   0.00299  -0.00002
  53        3PX         0.00000  -0.00004   0.00001  -0.00010   0.00000
  54        3PY         0.00000  -0.00004   0.00000  -0.00005   0.00000
  55        3PZ         0.00000  -0.00007   0.00000  -0.00010   0.00000
  56 6   H  1S          0.00000   0.00000   0.00000   0.00000  -0.00001
  57        2S          0.00000  -0.00002   0.00000   0.00299  -0.00002
  58        3PX         0.00000  -0.00004   0.00001  -0.00010   0.00000
  59        3PY         0.00000  -0.00004   0.00000  -0.00005   0.00000
  60        3PZ         0.00000   0.00007   0.00000   0.00010   0.00000
  61 7   C  1S          0.00000   0.00004  -0.00002  -0.00006  -0.00003
  62        2S          0.00002   0.00019  -0.00005  -0.00011   0.00000
  63        2PX         0.00001   0.00001   0.00003  -0.00013   0.00000
  64        2PY         0.00000  -0.00001   0.00002   0.00007   0.00000
  65        2PZ         0.00000   0.00000   0.00000   0.00000   0.00000
  66        3S         -0.00019  -0.00166   0.00021  -0.00073   0.00009
  67        3PX         0.00002  -0.00082  -0.00052   0.00135  -0.00007
  68        3PY        -0.00008  -0.00043  -0.00009  -0.00122   0.00016
  69        3PZ         0.00000   0.00000   0.00000   0.00000   0.00000
  70        4XX         0.00000  -0.00001   0.00000  -0.00002   0.00000
  71        4YY         0.00000   0.00005  -0.00001  -0.00003   0.00001
  72        4ZZ         0.00001   0.00005  -0.00002  -0.00004  -0.00001
  73        4XY         0.00001  -0.00003  -0.00002   0.00003  -0.00002
  74        4XZ         0.00000   0.00000   0.00000   0.00000   0.00000
  75        4YZ         0.00000   0.00000   0.00000   0.00000   0.00000
  76 8   H  1S          0.00000   0.00001  -0.00001  -0.00014  -0.00002
  77        2S          0.00001   0.00001  -0.00002   0.00023  -0.00002
  78        3PX         0.00000   0.00006   0.00000   0.00001   0.00002
  79        3PY         0.00000   0.00003   0.00000  -0.00005  -0.00001
  80        3PZ         0.00000  -0.00002   0.00000  -0.00006   0.00000
  81 9   H  1S          0.00000   0.00001  -0.00001  -0.00014  -0.00002
  82        2S          0.00001   0.00001  -0.00002   0.00023  -0.00002
  83        3PX         0.00000   0.00006   0.00000   0.00001   0.00002
  84        3PY         0.00000   0.00003   0.00000  -0.00005  -0.00001
  85        3PZ         0.00000   0.00002   0.00000   0.00006   0.00000
  86 10  C  1S          0.00001  -0.00001   0.00000  -0.00008  -0.00022
  87        2S          0.00004  -0.00003   0.00001  -0.00027  -0.00024
  88        2PX        -0.00002   0.00001   0.00002  -0.00005   0.00006
  89        2PY         0.00001   0.00000  -0.00001  -0.00002  -0.00002
  90        2PZ         0.00000   0.00000   0.00000   0.00000   0.00000
  91        3S         -0.00020   0.00035  -0.00013   0.00208   0.00167
  92        3PX         0.00035  -0.00001  -0.00029   0.00144  -0.00136
  93        3PY        -0.00004  -0.00013  -0.00002  -0.00036  -0.00017
  94        3PZ         0.00000   0.00000   0.00000   0.00000   0.00000
  95        4XX         0.00000   0.00001  -0.00001   0.00000   0.00001
  96        4YY         0.00001  -0.00001   0.00001  -0.00007  -0.00007
  97        4ZZ         0.00001   0.00000  -0.00001  -0.00008  -0.00006
  98        4XY        -0.00001   0.00001   0.00003  -0.00006   0.00004
  99        4XZ         0.00000   0.00000   0.00000   0.00000   0.00000
 100        4YZ         0.00000   0.00000   0.00000   0.00000   0.00000
 101 11  H  1S          0.00000   0.00005  -0.00003  -0.00004   0.00000
 102        2S          0.00000   0.00002  -0.00002  -0.00047   0.00008
 103        3PX         0.00000   0.00002   0.00002  -0.00009   0.00000
 104        3PY         0.00000   0.00000   0.00001   0.00003   0.00000
 105        3PZ         0.00000  -0.00001   0.00000  -0.00004   0.00001
 106 12  H  1S          0.00000   0.00005  -0.00003  -0.00004   0.00000
 107        2S          0.00000   0.00002  -0.00002  -0.00047   0.00008
 108        3PX         0.00000   0.00002   0.00002  -0.00009   0.00000
 109        3PY         0.00000   0.00000   0.00001   0.00003   0.00000
 110        3PZ         0.00000   0.00001   0.00000   0.00004  -0.00001
 111 13  C  1S         -0.00001   0.00001  -0.00008   0.00000   0.00052
 112        2S         -0.00003   0.00004  -0.00026   0.00001   0.00003
 113        2PX        -0.00001   0.00002   0.00005  -0.00003   0.00009
 114        2PY         0.00000  -0.00001   0.00003   0.00001   0.00003
 115        2PZ         0.00000   0.00000   0.00000   0.00000   0.00000
 116        3S          0.00037  -0.00020   0.00200  -0.00018  -0.00138
 117        3PX         0.00000  -0.00037  -0.00145   0.00031  -0.00049
 118        3PY         0.00013   0.00004   0.00033  -0.00001  -0.00117
 119        3PZ         0.00000   0.00000   0.00000   0.00000   0.00000
 120        4XX         0.00001   0.00000   0.00000  -0.00001  -0.00003
 121        4YY        -0.00001   0.00002  -0.00007   0.00001  -0.00002
 122        4ZZ         0.00000   0.00001  -0.00008  -0.00001  -0.00002
 123        4XY         0.00001  -0.00001  -0.00006   0.00003   0.00002
 124        4XZ         0.00000   0.00000   0.00000   0.00000   0.00000
 125        4YZ         0.00000   0.00000   0.00000   0.00000   0.00000
 126 14  H  1S          0.00002  -0.00001  -0.00001  -0.00008  -0.00008
 127        2S          0.00001   0.00001   0.00008  -0.00007  -0.00008
 128        3PX        -0.00001   0.00000   0.00001  -0.00004   0.00004
 129        3PY         0.00000   0.00000   0.00000   0.00000  -0.00001
 130        3PZ         0.00000   0.00000  -0.00001  -0.00001  -0.00001
 131 15  H  1S          0.00002  -0.00001  -0.00001  -0.00008  -0.00008
 132        2S          0.00001   0.00001   0.00008  -0.00007  -0.00008
 133        3PX        -0.00001   0.00000   0.00001  -0.00004   0.00004
 134        3PY         0.00000   0.00000   0.00000   0.00000  -0.00001
 135        3PZ         0.00000   0.00000   0.00001   0.00001   0.00001
 136 16  C  1S          0.00003   0.00000  -0.00005  -0.00002   0.03675
 137        2S          0.00018   0.00002  -0.00008  -0.00006   0.00146
 138        2PX        -0.00001  -0.00001   0.00013  -0.00003   0.00010
 139        2PY         0.00001   0.00000  -0.00006  -0.00002   0.00014
 140        2PZ         0.00000   0.00000   0.00000   0.00000   0.00000
 141        3S         -0.00158  -0.00020  -0.00082   0.00028   0.00605
 142        3PX         0.00075  -0.00003  -0.00122   0.00053  -0.00243
 143        3PY         0.00043   0.00008   0.00120   0.00006  -0.00217
 144        3PZ         0.00000   0.00000   0.00000   0.00000   0.00000
 145        4XX        -0.00001   0.00000  -0.00003   0.00000  -0.00057
 146        4YY         0.00005   0.00000  -0.00003  -0.00001  -0.00063
 147        4ZZ         0.00005   0.00001  -0.00004  -0.00002  -0.00051
 148        4XY        -0.00003   0.00001   0.00003  -0.00002  -0.00013
 149        4XZ         0.00000   0.00000   0.00000   0.00000   0.00000
 150        4YZ         0.00000   0.00000   0.00000   0.00000   0.00000
 151 17  H  1S         -0.00001   0.00002  -0.00008  -0.00001   0.00000
 152        2S          0.00000   0.00001  -0.00007   0.00008  -0.00039
 153        3PX         0.00000   0.00001   0.00005  -0.00001   0.00005
 154        3PY         0.00000   0.00000   0.00001   0.00000   0.00002
 155        3PZ         0.00000   0.00000   0.00001   0.00001  -0.00003
 156 18  H  1S         -0.00001   0.00002  -0.00008  -0.00001   0.00000
 157        2S          0.00000   0.00001  -0.00007   0.00008  -0.00039
 158        3PX         0.00000   0.00001   0.00005  -0.00001   0.00005
 159        3PY         0.00000   0.00000   0.00001   0.00000   0.00002
 160        3PZ         0.00000   0.00000  -0.00001  -0.00001   0.00003
 161 19  C  1S         -0.00003   0.00000   0.00191  -0.00001   0.99236
 162        2S         -0.00011   0.00000  -0.00023  -0.00004   0.05077
 163        2PX        -0.00009   0.00001   0.00013   0.00000   0.00001
 164        2PY        -0.00002   0.00000  -0.00008   0.00001  -0.00008
 165        2PZ         0.00000   0.00000   0.00000   0.00000   0.00000
 166        3S          0.00188   0.00008   0.00522   0.00035  -0.02204
 167        3PX         0.00052  -0.00007  -0.00255   0.00014  -0.00059
 168        3PY         0.00082   0.00007   0.00175   0.00007  -0.00199
 169        3PZ         0.00000   0.00000   0.00000   0.00000   0.00000
 170        4XX        -0.00004   0.00000  -0.00025   0.00000  -0.00914
 171        4YY        -0.00002   0.00000  -0.00027   0.00000  -0.00885
 172        4ZZ        -0.00004   0.00000  -0.00019  -0.00001  -0.00862
 173        4XY         0.00001   0.00000   0.00006   0.00001   0.00000
 174        4XZ         0.00000   0.00000   0.00000   0.00000   0.00000
 175        4YZ         0.00000   0.00000   0.00000   0.00000   0.00000
 176 20  H  1S          0.00005   0.00000  -0.00003  -0.00003  -0.00015
 177        2S          0.00002   0.00000  -0.00045  -0.00002   0.00027
 178        3PX        -0.00002   0.00000   0.00009  -0.00002  -0.00002
 179        3PY         0.00000   0.00000  -0.00003  -0.00001  -0.00004
 180        3PZ         0.00001   0.00000   0.00004   0.00000  -0.00006
 181 21  H  1S          0.00005   0.00000  -0.00003  -0.00003  -0.00015
 182        2S          0.00002   0.00000  -0.00045  -0.00002   0.00027
 183        3PX        -0.00002   0.00000   0.00009  -0.00002  -0.00002
 184        3PY         0.00000   0.00000  -0.00003  -0.00001  -0.00004
 185        3PZ        -0.00001   0.00000  -0.00004   0.00000   0.00006
 186 22  H  1S          0.00001   0.00000  -0.00015  -0.00001   0.00001
 187        2S          0.00002   0.00001   0.00020  -0.00002   0.00293
 188        3PX        -0.00006   0.00000   0.00001   0.00000   0.00002
 189        3PY        -0.00003   0.00000   0.00004   0.00000  -0.00008
 190        3PZ         0.00002   0.00000   0.00006   0.00000  -0.00022
 191 23  H  1S          0.00001   0.00000  -0.00015  -0.00001   0.00001
 192        2S          0.00002   0.00001   0.00020  -0.00002   0.00293
 193        3PX        -0.00006   0.00000   0.00001   0.00000   0.00002
 194        3PY        -0.00003   0.00000   0.00004   0.00000  -0.00008
 195        3PZ        -0.00002   0.00000  -0.00006   0.00000   0.00022
 196 24  C  1S          0.00002   0.00000   0.99306   0.00003  -0.00217
 197        2S          0.00026   0.00001   0.04961  -0.00001  -0.00044
 198        2PX        -0.00025   0.00000  -0.00048  -0.00001  -0.00003
 199        2PY        -0.00023   0.00000  -0.00020   0.00000   0.00005
 200        2PZ         0.00000   0.00000   0.00000   0.00000   0.00000
 201        3S         -0.00227  -0.00012  -0.01815  -0.00001   0.00576
 202        3PX         0.00037  -0.00004  -0.00190   0.00010   0.00195
 203        3PY         0.00100   0.00003   0.00077   0.00005  -0.00158
 204        3PZ         0.00000   0.00000   0.00000   0.00000   0.00000
 205        4XX         0.00018   0.00000  -0.00887  -0.00001  -0.00023
 206        4YY         0.00017   0.00000  -0.00881  -0.00001  -0.00027
 207        4ZZ         0.00010   0.00000  -0.00868  -0.00001  -0.00013
 208        4XY         0.00015   0.00000   0.00020  -0.00001   0.00015
 209        4XZ         0.00000   0.00000   0.00000   0.00000   0.00000
 210        4YZ         0.00000   0.00000   0.00000   0.00000   0.00000
 211 25  H  1S          0.00002   0.00000  -0.00002  -0.00001  -0.00018
 212        2S         -0.00001   0.00000   0.00298   0.00000  -0.00004
[...]
     9  H    0.000000   0.000000   0.000000   0.000000
    10  C    0.000005   0.000005   0.000000   0.000000
    11  H    0.000000   0.000000   0.000000   0.000000
    12  H    0.000000   0.000000   0.000000   0.000000
    13  C   -0.000065  -0.000065  -0.000035   0.000002
    14  H    0.000001  -0.000002   0.000000   0.000000
    15  H   -0.000002   0.000001   0.000000   0.000000
    16  C   -0.000818  -0.000818   0.002166  -0.000266
    17  H    0.000008   0.000003   0.000000   0.000000
    18  H    0.000003   0.000008   0.000000   0.000000
    19  C   -0.042521  -0.042521  -0.048166   0.005819
    20  H   -0.000705   0.005288  -0.000009   0.000003
    21  H    0.005288  -0.000705  -0.000009   0.000003
    22  H   -0.008857   0.007005   0.003790  -0.000094
    23  H    0.007005  -0.008857   0.003790  -0.000094
    24  C    0.374097   0.374097   0.233494  -0.022094
    25  H    0.679439  -0.058428  -0.037880  -0.003925
    26  H   -0.058428   0.679439  -0.037880  -0.003925
    27  O   -0.037880  -0.037880   8.175986   0.285319
    28  H   -0.003925  -0.003925   0.285319   0.413613
 Mulliken atomic charges:
              1
     1  O   -0.580562
     2  H    0.325638
     3  C    0.057007
     4  C   -0.187234
     5  H    0.087357
     6  H    0.087357
     7  C   -0.182694
     8  H    0.098297
     9  H    0.098297
    10  C   -0.176516
    11  H    0.094590
    12  H    0.094590
    13  C   -0.176516
    14  H    0.091938
    15  H    0.091938
    16  C   -0.182695
    17  H    0.091938
    18  H    0.091938
    19  C   -0.187236
    20  H    0.094590
    21  H    0.094590
    22  H    0.098298
    23  H    0.098298
    24  C    0.057009
    25  H    0.087356
    26  H    0.087356
    27  O   -0.580566
    28  H    0.325639
 Sum of Mulliken atomic charges =   0.00000
 Mulliken charges with hydrogens summed into heavy atoms:
              1
     1  O   -0.254924
     3  C    0.231720
     4  C    0.009361
     7  C    0.006485
    10  C    0.007360
    13  C    0.007360
    16  C    0.006485
    19  C    0.009360
    24  C    0.231721
    27  O   -0.254926
 Sum of Mulliken charges with hydrogens summed into heavy atoms =   0.00000
 Electronic spatial extent (au):  <R**2>=           4339.2261
 Charge=              0.0000 electrons
 Dipole moment (field-independent basis, Debye):
    X=              0.0000    Y=              0.0000    Z=              0.0000  Tot=              0.0000
 Quadrupole moment (field-independent basis, Debye-Ang):
   XX=            -57.2444   YY=            -65.7398   ZZ=            -64.0359
   XY=            -21.0018   XZ=              0.0000   YZ=              0.0000
 Traceless Quadrupole moment (field-independent basis, Debye-Ang):
   XX=              5.0956   YY=             -3.3998   ZZ=             -1.6959
   XY=            -21.0018   XZ=              0.0000   YZ=              0.0000
 Octapole moment (field-independent basis, Debye-Ang**2):
  XXX=              0.0014  YYY=              0.0000  ZZZ=              0.0000  XYY=             -0.0002
  XXY=              0.0004  XXZ=              0.0003  XZZ=              0.0000  YZZ=              0.0000
  YYZ=              0.0000  XYZ=              0.0000
 Hexadecapole moment (field-independent basis, Debye-Ang**3):
 XXXX=          -3868.6703 YYYY=           -213.5322 ZZZZ=           -118.9971 XXXY=           -684.9839
 XXXZ=              0.0015 YYYX=              4.7435 YYYZ=              0.0000 ZZZX=              0.0000
 ZZZY=              0.0000 XXYY=           -911.7218 XXZZ=           -875.2879 YYZZ=            -51.0534
 XXYZ=              0.0000 YYXZ=              0.0000 ZZXY=             -0.4828
 N-N= 5.176435028114D+02 E-N=-2.120098485764D+03  KE= 4.617706025642D+02
 Orbital energies and kinetic energies (alpha):
                                 1                 2
   1         O               -19.139989         29.029297
   2         O               -19.139989         29.029303
   3         O               -10.224645         15.887889
   4         O               -10.224644         15.887877
   5         O               -10.177618         15.885791
   6         O               -10.177616         15.884900
   7         O               -10.176122         15.885513
   8         O               -10.176121         15.885514
   9         O               -10.175444         15.883345
  10         O               -10.175233         15.889320
  11         O                -1.009471          2.513179
  12         O                -1.009469          2.513165
  13         O                -0.806403          1.331888
  14         O                -0.781772          1.398312
  15         O                -0.740222          1.477388
  16         O                -0.687567          1.558916
  17         O                -0.630957          1.614719
  18         O                -0.587006          1.470597
  19         O                -0.574014          1.171302
  20         O                -0.573078          1.251213
  21         O                -0.502395          1.631501
  22         O                -0.497835          1.680723
  23         O                -0.484105          0.847941
  24         O                -0.472319          0.924423
  25         O                -0.446395          1.005807
  26         O                -0.421400          1.402878
  27         O                -0.414484          1.317585
  28         O                -0.411430          1.098673
  29         O                -0.380544          1.448934
  30         O                -0.377378          1.673018
  31         O                -0.372849          1.173349
  32         O                -0.346447          1.464526
  33         O                -0.340281          1.175114
  34         O                -0.336102          1.762921
  35         O                -0.322762          1.642056
  36         O                -0.322239          1.094108
  37         O                -0.321765          1.207058
  38         O                -0.317365          1.020346
  39         O                -0.301532          1.664970
  40         O                -0.264990          2.102703
  41         O                -0.264917          2.097240
  42         V                 0.086488          1.215279
  43         V                 0.088035          1.174703
  44         V                 0.091259          0.883507
  45         V                 0.102164          1.021259
  46         V                 0.115856          0.826988
  47         V                 0.127861          1.219909
  48         V                 0.128044          0.918523
  49         V                 0.140533          0.890372
  50         V                 0.155576          1.009571
  51         V                 0.165251          1.285462
  52         V                 0.176931          0.982334
  53         V                 0.190890          1.722282
  54         V                 0.193836          1.298496
  55         V                 0.198709          1.278324
  56         V                 0.200805          0.992411
  57         V                 0.201787          0.986792
  58         V                 0.207386          1.068797
  59         V                 0.211015          0.989478
  60         V                 0.215459          1.035318
  61         V                 0.220964          1.717099
  62         V                 0.223776          1.691752
  63         V                 0.230661          1.235138
  64         V                 0.255124          1.282468
  65         V                 0.267421          1.767890
  66         V                 0.271088          1.860552
  67         V                 0.333088          2.082145
  68         V                 0.339889          2.303436
  69         V                 0.470101          1.702938
  70         V                 0.510634          1.873993
  71         V                 0.516504          1.956954
  72         V                 0.528262          2.155639
  73         V                 0.555849          1.611095
  74         V                 0.560553          1.615680
  75         V                 0.569381          1.665224
  76         V                 0.574604          2.274178
  77         V                 0.599174          2.066117
  78         V                 0.600446          2.292342
  79         V                 0.604240          1.813753
  80         V                 0.638395          2.194916
  81         V                 0.663921          2.057553
  82         V                 0.670350          2.804348
  83         V                 0.675570          2.684811
  84         V                 0.716822          2.376392
  85         V                 0.725025          2.359563
  86         V                 0.726687          2.543855
  87         V                 0.738192          2.378139
  88         V                 0.760575          2.457750
  89         V                 0.787144          2.591902
  90         V                 0.792315          2.641843
  91         V                 0.794678          2.397425
  92         V                 0.798181          2.752736
  93         V                 0.819689          2.462091
  94         V                 0.831342          2.482073
  95         V                 0.847554          2.580959
  96         V                 0.853450          2.490436
  97         V                 0.858522          2.507929
  98         V                 0.890172          2.491654
  99         V                 0.897457          2.618038
 100         V                 0.900661          2.595695
 101         V                 0.922295          2.545884
 102         V                 0.927754          2.465305
 103         V                 0.928570          2.483022
 104         V                 0.932444          2.451851
 105         V                 0.943874          2.356238
 106         V                 0.954512          2.246585
 107         V                 0.961126          2.694575
 108         V                 0.961307          2.526998
 109         V                 0.962206          2.565862
 110         V                 0.982781          2.885279
 111         V                 0.987532          2.685084
 112         V                 0.998366          2.344473
 113         V                 1.006654          2.933654
 114         V                 1.080170          2.474647
 115         V                 1.187087          2.669586
 116         V                 1.194367          2.638530
 117         V                 1.209982          2.512377
 118         V                 1.211984          2.289640
 119         V                 1.289161          2.344106
 120         V                 1.303666          2.533745
 121         V                 1.322843          2.445068
 122         V                 1.362931          2.503203
 123         V                 1.382897          2.509173
 124         V                 1.416516          2.424333
 125         V                 1.438405          2.532369
 126         V                 1.464718          2.406604
 127         V                 1.499033          2.583046
 128         V                 1.523743          2.520479
 129         V                 1.536781          2.554792
 130         V                 1.583601          2.571465
 131         V                 1.594178          2.571946
 132         V                 1.594644          2.723166
 133         V                 1.620873          2.603709
 134         V                 1.671917          2.654254
 135         V                 1.675646          2.779435
 136         V                 1.688421          2.635671
 137         V                 1.696582          2.658700
 138         V                 1.712981          2.676672
 139         V                 1.715849          2.675245
 140         V                 1.730913          2.873758
 141         V                 1.826555          3.108433
 142         V                 1.855236          3.101265
 143         V                 1.858182          3.173614
 144         V                 1.875133          3.155163
 145         V                 1.881785          3.286589
 146         V                 1.902063          3.252401
 147         V                 1.903815          3.105612
 148         V                 1.923837          3.188859
 149         V                 1.942393          3.285345
 150         V                 1.943071          2.990114
 151         V                 1.943402          2.989482
 152         V                 1.985770          3.350423
 153         V                 1.992762          3.420768
 154         V                 2.011623          3.303613
 155         V                 2.069005          3.195742
 156         V                 2.072339          3.170276
 157         V                 2.079175          3.211643
 158         V                 2.079461          3.513322
 159         V                 2.089705          3.173816
 160         V                 2.115940          3.221890
 161         V                 2.124088          3.332622
 162         V                 2.158080          3.301837
 163         V                 2.162794          3.326044
 164         V                 2.188281          3.452404
 165         V                 2.227704          3.034683
 166         V                 2.238292          3.043051
 167         V                 2.259024          3.063399
 168         V                 2.283106          3.091312
 169         V                 2.293567          3.508890
 170         V                 2.302910          3.132454
 171         V                 2.323659          3.165311
 172         V                 2.330939          3.176976
 173         V                 2.339169          3.542179
 174         V                 2.343059          3.557121
 175         V                 2.369507          3.658780
 176         V                 2.390773          3.561202
 177         V                 2.422690          3.380138
 178         V                 2.430480          3.304461
 179         V                 2.437424          3.792417
 180         V                 2.455841          3.585342
 181         V                 2.483369          3.544511
 182         V                 2.489161          3.808417
 183         V                 2.544184          3.542289
 184         V                 2.581797          3.697398
 185         V                 2.601387          3.648878
 186         V                 2.627619          3.693779
 187         V                 2.662327          3.951793
 188         V                 2.666629          3.609490
 189         V                 2.670460          3.607833
 190         V                 2.679958          3.829135
 191         V                 2.682966          3.776581
 192         V                 2.690619          3.825122
 193         V                 2.706522          3.984820
 194         V                 2.715845          3.873570
 195         V                 2.740051          3.922515
 196         V                 2.768226          3.764863
 197         V                 2.778133          3.927901
 198         V                 2.825593          4.172185
 199         V                 2.836103          3.803667
 200         V                 2.844750          3.985653
 201         V                 2.858971          3.912379
 202         V                 2.880004          4.160323
 203         V                 2.884136          4.010750
 204         V                 2.905525          4.017636
 205         V                 2.915809          3.879157
 206         V                 2.916948          4.093593
 207         V                 2.932830          4.049350
 208         V                 2.936336          4.147238
 209         V                 2.945972          3.950321
 210         V                 2.964927          4.115611
 211         V                 3.005686          4.272949
 212         V                 3.025941          4.278760
 213         V                 3.223082          4.846500
 214         V                 3.248499          4.828781
 215         V                 3.261955          4.851240
 216         V                 3.277779          4.925236
 217         V                 3.288537          4.847158
 218         V                 3.301921          5.018609
 219         V                 3.332340          5.140320
 220         V                 3.333934          4.888522
 221         V                 3.376902          5.344834
 222         V                 3.399511          4.948757
 223         V                 3.435866          5.543290
 224         V                 3.475521          5.983527
 225         V                 3.476350          5.025095
 226         V                 3.480243          5.755772
 227         V                 3.545137          5.109765
 228         V                 3.576611          5.194012
 229         V                 3.589569          5.198465
 230         V                 3.590813          5.198902
 231         V                 3.956238          9.475936
 232         V                 3.957378          9.466093
 233         V                 4.241389         10.053394
 234         V                 4.307360         10.127499
 235         V                 4.388151         10.181880
 236         V                 4.467114         10.208792
 237         V                 4.536743         10.207372
 238         V                 4.609783         10.223455
 239         V                 4.701443         10.398954
 240         V                 4.791697         10.576078
 Total kinetic energy from orbitals= 4.617706025642D+02
 No NMR shielding tensors so no spin-rotation constants.
 Leave Link  601 at Mon Mar 14 13:59:08 2022, MaxMem=  536870912 cpu:       2.5
 (Enter /opt/gridunesp/dist/gaussian/g09/l9999.exe)

 Test job not archived.
 1\1\GINC-NODE025\FOpt\RB3LYP\6-31G(d,p)\C8H18O2\RHEINHEIMER\14-Mar-202
 2\0\\#p opt=tight b3lyp/6-31g(d,p) scrf=(solvent=water) geom=connectiv
 ity # density gfinput iop(6/7=3) pop=full test units=(ang,deg)\\peg-6.
 xyz\\0,1\O,-0.1482454769,-0.0000035543,0.1112183542\H,-0.1563867767,-0
 .000003207,1.077577616\C,1.2176201777,-0.0000012278,-0.3084713606\C,1.
 2511301029,-0.0000019455,-1.8310843302\H,1.7465297314,0.8860735109,0.0
 764673847\H,1.7465330314,-0.8860735994,0.0764682949\C,2.675183289,0.00
 00005209,-2.398805666\H,0.7042607949,-0.8804218716,-2.1932582831\H,0.7
 042573933,0.8804154986,-2.1932591821\C,2.7147613092,-0.0000002484,-3.9
 320539511\H,3.2183420058,0.8784035044,-2.0228718772\H,3.2183454433,-0.
 878399922,-2.0228709064\C,4.1368197779,0.0000023071,-4.5055107323\H,2.
 1714270974,-0.8782583216,-4.3083641365\H,2.1714235523,0.8782552144,-4.
 3083651103\C,4.1764078009,0.0000014968,-6.0387589422\H,4.6801531879,0.
 8782603399,-4.1291995854\H,4.6801567602,-0.8782530773,-4.1291985649\C,
 5.6004661086,0.0000043088,-6.6064768951\H,3.6332534307,-0.8784019816,-
 6.4146958562\H,3.6332495764,0.878402148,-6.4146968859\H,6.1473329077,0
 .8804261536,-6.2443081934\H,6.1473370599,-0.8804143138,-6.2443066505\C
 ,5.6339861347,0.000003095,-8.1290969124\H,5.1050672163,0.8860749781,-8
 .514031066\H,5.1050722759,-0.8860724183,-8.514029576\O,6.9998494677,0.
 0000066572,-8.5488042553\H,7.0080023104,0.0000030616,-9.5151660605\\Ve
 rsion=EM64L-G09RevA.02\State=1-A\HF=-466.1615137\RMSD=2.544e-09\RMSF=1
 .514e-06\Dipole=-0.0000011,-0.000003,0.0000125\Quadrupole=-15.1739475,
 -1.2608317,16.4347791,-0.0000441,2.0007375,0.0000392\PG=C01 [X(C8H18O2
 )]\\@


 "MATHEMATICS IS THE ART OF GIVING THE SAME NAME
 TO DIFFERENT THINGS."
                    - H. POINCARE
 Job cpu time:  0 days  0 hours 33 minutes 48.0 seconds.
 File lengths (MBytes):  RWF=    225 Int=      0 D2E=      0 Chk=      9 Scr=      2
 Normal termination of Gaussian 09 at Mon Mar 14 13:59:08 2022.
