 Entering Gaussian System, Link 0=g09
 Input=peg-5_opt_g09.com
 Output=peg-5_opt_g09.log
 Initial command:
 /opt/gridunesp/dist/gaussian/g09/l1.exe /store/rheinheimer/2838052/Gau-1615.inp -scrdir=/store/rheinheimer/2838052/
 Entering Link 1 = /opt/gridunesp/dist/gaussian/g09/l1.exe PID=      1617.
  
 Copyright (c) 1988,1990,1992,1993,1995,1998,2003,2009, Gaussian, Inc.
                  All Rights Reserved.
  
 This is part of the Gaussian(R) 09 program.  It is based on
 the Gaussian(R) 03 system (copyright 2003, Gaussian, Inc.),
 the Gaussian(R) 98 system (copyright 1998, Gaussian, Inc.),
 the Gaussian(R) 94 system (copyright 1995, Gaussian, Inc.),
 the Gaussian 92(TM) system (copyright 1992, Gaussian, Inc.),
 the Gaussian 90(TM) system (copyright 1990, Gaussian, Inc.),
 the Gaussian 88(TM) system (copyright 1988, Gaussian, Inc.),
 the Gaussian 86(TM) system (copyright 1986, Carnegie Mellon
 University), and the Gaussian 82(TM) system (copyright 1983,
 Carnegie Mellon University). Gaussian is a federally registered
 trademark of Gaussian, Inc.
  
 This software contains proprietary and confidential information,
 including trade secrets, belonging to Gaussian, Inc.
  
 This software is provided under written license and may be
 used, copied, transmitted, or stored only in accord with that
 written license.
  
 The following legend is applicable only to US Government
 contracts under FAR:
  
                    RESTRICTED RIGHTS LEGEND
  
 Use, reproduction and disclosure by the US Government is
 subject to restrictions as set forth in subparagraphs (a)
 and (c) of the Commercial Computer Software - Restricted
 Rights clause in FAR 52.227-19.
  
 Gaussian, Inc.
 340 Quinnipiac St., Bldg. 40, Wallingford CT 06492
  
  
 ---------------------------------------------------------------
 Warning -- This program may not be used in any manner that
 competes with the business of Gaussian, Inc. or will provide
 assistance to any competitor of Gaussian, Inc.  The licensee
 of this program is prohibited from giving any competitor of
 Gaussian, Inc. access to this program.  By using this program,
 the user acknowledges that Gaussian, Inc. is engaged in the
 business of creating and licensing software in the field of
 computational chemistry and represents and warrants to the
 licensee that it is not a competitor of Gaussian, Inc. and that
 it will not use this program in any manner prohibited above.
 ---------------------------------------------------------------
  

 Cite this work as:
 Gaussian 09, Revision A.02,
 M. J. Frisch, G. W. Trucks, H. B. Schlegel, G. E. Scuseria, 
 M. A. Robb, J. R. Cheeseman, G. Scalmani, V. Barone, B. Mennucci, 
 G. A. Petersson, H. Nakatsuji, M. Caricato, X. Li, H. P. Hratchian, 
 A. F. Izmaylov, J. Bloino, G. Zheng, J. L. Sonnenberg, M. Hada, 
 M. Ehara, K. Toyota, R. Fukuda, J. Hasegawa, M. Ishida, T. Nakajima, 
 Y. Honda, O. Kitao, H. Nakai, T. Vreven, J. A. Montgomery, Jr., 
 J. E. Peralta, F. Ogliaro, M. Bearpark, J. J. Heyd, E. Brothers, 
 K. N. Kudin, V. N. Staroverov, R. Kobayashi, J. Normand, 
 K. Raghavachari, A. Rendell, J. C. Burant, S. S. Iyengar, J. Tomasi, 
 M. Cossi, N. Rega, J. M. Millam, M. Klene, J. E. Knox, J. B. Cross, 
 V. Bakken, C. Adamo, J. Jaramillo, R. Gomperts, R. E. Stratmann, 
 O. Yazyev, A. J. Austin, R. Cammi, C. Pomelli, J. W. Ochterski, 
 R. L. Martin, K. Morokuma, V. G. Zakrzewski, G. A. Voth, 
 P. Salvador, J. J. Dannenberg, S. Dapprich, A. D. Daniels, 
 O. Farkas, J. B. Foresman, J. V. Ortiz, J. Cioslowski, 
 and D. J. Fox, Gaussian, Inc., Wallingford CT, 2009.
 
 ******************************************
 Gaussian 09:  EM64L-G09RevA.02 11-Jun-2009
                14-Mar-2022 
 ******************************************
 %nproc=8
 Will use up to    8 processors via shared memory.
 %Mem=4GB
 ----------------------------------------------------------------------
 #P B3LYP/6-31G(d,p) # Opt=tight SCRF=(Solvent=Water) # Gfinput IOP(6/7
 =3) Pop=full Density Test # Units(Ang,Deg)
 ----------------------------------------------------------------------
 1/7=10,14=-1,18=20,19=15,26=3,38=1/1,3;
 2/9=110,12=2,17=6,18=5,40=1/2;
 3/5=1,6=6,7=101,11=2,16=1,24=10,25=1,30=1,70=2201,71=1,72=1,74=-5/1,2,3;
 4//1;
 5/5=2,38=5,53=1/2;
 6/7=3,22=-1,28=1/1;
 7//1,2,3,16;
 1/7=10,14=-1,18=20,19=15/3(2);
 2/9=110/2;
 99//99;
 2/9=110/2;
 3/5=1,6=6,7=101,11=2,16=1,25=1,30=1,70=2205,71=1,72=1,74=-5/1,2,3;
 4/5=5,16=3/1;
 5/5=2,38=5,53=1/2;
 7//1,2,3,16;
 1/7=10,14=-1,18=20,19=15/3(-5);
 2/9=110/2;
 6/7=3,19=2,22=-1,28=1/1;
 99/9=1/99;
 Leave Link    1 at Mon Mar 14 13:48:56 2022, MaxMem=  536870912 cpu:       0.6
 (Enter /opt/gridunesp/dist/gaussian/g09/l101.exe)
 ---------
 peg-5.xyz
 ---------
 Symbolic Z-matrix:
 Charge =  0 Multiplicity = 1
 O                     0.        0.        0. 
 H                     0.        0.        0.947 
 C                     1.30108   0.       -0.45999 
 C                     1.30108   0.       -1.95999 
 H                     1.80548   0.87365  -0.10333 
 H                     1.80548  -0.87365  -0.10333 
 C                     2.7153    0.       -2.45999 
 H                     0.79668  -0.87365  -2.31666 
 H                     0.79668   0.87365  -2.31666 
 C                     2.7153    0.       -3.95999 
 H                     3.2197    0.87365  -2.10332 
 H                     3.2197   -0.87365  -2.10332 
 C                     4.12952   0.       -4.45998 
 H                     2.2109   -0.87365  -4.31666 
 H                     2.2109    0.87365  -4.31666 
 C                     4.12953   0.       -5.95998 
 H                     4.63392   0.87365  -4.10332 
 H                     4.63392  -0.87365  -4.10332 
 O                     5.4306    0.       -6.41998 
 H                     3.62513  -0.87365  -6.31665 
 H                     3.62513   0.87365  -6.31665 
 H                     5.43061   0.       -7.36698 
 
 NAtoms=     22 NQM=     22 NQMF=      0 NMic=      0 NMicF=      0 NTot=     22.
                    Isotopes and Nuclear Properties:
 (Nuclear quadrupole moments (NQMom) in fm**2, nuclear magnetic moments (NMagM)
  in nuclear magnetons)

  Atom         1           2           3           4           5           6           7           8           9          10
 IAtWgt=          16           1          12          12           1           1          12           1           1          12
 AtmWgt=  15.9949146   1.0078250  12.0000000  12.0000000   1.0078250   1.0078250  12.0000000   1.0078250   1.0078250  12.0000000
 NucSpn=           0           1           0           0           1           1           0           1           1           0
 AtZEff=   0.0000000   0.0000000   0.0000000   0.0000000   0.0000000   0.0000000   0.0000000   0.0000000   0.0000000   0.0000000
 NQMom=    0.0000000   0.0000000   0.0000000   0.0000000   0.0000000   0.0000000   0.0000000   0.0000000   0.0000000   0.0000000
 NMagM=    0.0000000   2.7928460   0.0000000   0.0000000   2.7928460   2.7928460   0.0000000   2.7928460   2.7928460   0.0000000

  Atom        11          12          13          14          15          16          17          18          19          20
 IAtWgt=           1           1          12           1           1          12           1           1          16           1
 AtmWgt=   1.0078250   1.0078250  12.0000000   1.0078250   1.0078250  12.0000000   1.0078250   1.0078250  15.9949146   1.0078250
 NucSpn=           1           1           0           1           1           0           1           1           0           1
 AtZEff=   0.0000000   0.0000000   0.0000000   0.0000000   0.0000000   0.0000000   0.0000000   0.0000000   0.0000000   0.0000000
 NQMom=    0.0000000   0.0000000   0.0000000   0.0000000   0.0000000   0.0000000   0.0000000   0.0000000   0.0000000   0.0000000
 NMagM=    2.7928460   2.7928460   0.0000000   2.7928460   2.7928460   0.0000000   2.7928460   2.7928460   0.0000000   2.7928460

  Atom        21          22
 IAtWgt=           1           1
 AtmWgt=   1.0078250   1.0078250
 NucSpn=           1           1
 AtZEff=   0.0000000   0.0000000
 NQMom=    0.0000000   0.0000000
 NMagM=    2.7928460   2.7928460
 Leave Link  101 at Mon Mar 14 13:48:57 2022, MaxMem=  536870912 cpu:       0.6
 (Enter /opt/gridunesp/dist/gaussian/g09/l103.exe)

 GradGradGradGradGradGradGradGradGradGradGradGradGradGradGradGradGradGrad
 Berny optimization.
 Initialization pass.
                           ----------------------------
                           !    Initial Parameters    !
                           ! (Angstroms and Degrees)  !
 --------------------------                            --------------------------
 ! Name  Definition              Value          Derivative Info.                !
 --------------------------------------------------------------------------------
 ! R1    R(1,2)                  0.947          estimate D2E/DX2                !
 ! R2    R(1,3)                  1.38           estimate D2E/DX2                !
 ! R3    R(3,4)                  1.5            estimate D2E/DX2                !
 ! R4    R(3,5)                  1.07           estimate D2E/DX2                !
 ! R5    R(3,6)                  1.07           estimate D2E/DX2                !
 ! R6    R(4,7)                  1.5            estimate D2E/DX2                !
 ! R7    R(4,8)                  1.07           estimate D2E/DX2                !
 ! R8    R(4,9)                  1.07           estimate D2E/DX2                !
 ! R9    R(7,10)                 1.5            estimate D2E/DX2                !
 ! R10   R(7,11)                 1.07           estimate D2E/DX2                !
 ! R11   R(7,12)                 1.07           estimate D2E/DX2                !
 ! R12   R(10,13)                1.5            estimate D2E/DX2                !
 ! R13   R(10,14)                1.07           estimate D2E/DX2                !
 ! R14   R(10,15)                1.07           estimate D2E/DX2                !
 ! R15   R(13,16)                1.5            estimate D2E/DX2                !
 ! R16   R(13,17)                1.07           estimate D2E/DX2                !
 ! R17   R(13,18)                1.07           estimate D2E/DX2                !
 ! R18   R(16,19)                1.38           estimate D2E/DX2                !
 ! R19   R(16,20)                1.07           estimate D2E/DX2                !
 ! R20   R(16,21)                1.07           estimate D2E/DX2                !
 ! R21   R(19,22)                0.947          estimate D2E/DX2                !
 ! A1    A(2,1,3)              109.4708         estimate D2E/DX2                !
 ! A2    A(1,3,4)              109.4708         estimate D2E/DX2                !
 ! A3    A(1,3,5)              109.4715         estimate D2E/DX2                !
 ! A4    A(1,3,6)              109.4715         estimate D2E/DX2                !
 ! A5    A(4,3,5)              109.4709         estimate D2E/DX2                !
 ! A6    A(4,3,6)              109.4709         estimate D2E/DX2                !
 ! A7    A(5,3,6)              109.4717         estimate D2E/DX2                !
 ! A8    A(3,4,7)              109.4711         estimate D2E/DX2                !
 ! A9    A(3,4,8)              109.4714         estimate D2E/DX2                !
 ! A10   A(3,4,9)              109.4714         estimate D2E/DX2                !
 ! A11   A(7,4,8)              109.4711         estimate D2E/DX2                !
 ! A12   A(7,4,9)              109.4711         estimate D2E/DX2                !
 ! A13   A(8,4,9)              109.4712         estimate D2E/DX2                !
 ! A14   A(4,7,10)             109.4711         estimate D2E/DX2                !
 ! A15   A(4,7,11)             109.4711         estimate D2E/DX2                !
 ! A16   A(4,7,12)             109.4711         estimate D2E/DX2                !
 ! A17   A(10,7,11)            109.4714         estimate D2E/DX2                !
 ! A18   A(10,7,12)            109.4714         estimate D2E/DX2                !
 ! A19   A(11,7,12)            109.4712         estimate D2E/DX2                !
 ! A20   A(7,10,13)            109.4708         estimate D2E/DX2                !
 ! A21   A(7,10,14)            109.4714         estimate D2E/DX2                !
 ! A22   A(7,10,15)            109.4714         estimate D2E/DX2                !
 ! A23   A(13,10,14)           109.4713         estimate D2E/DX2                !
 ! A24   A(13,10,15)           109.4713         estimate D2E/DX2                !
 ! A25   A(14,10,15)           109.4712         estimate D2E/DX2                !
 ! A26   A(10,13,16)           109.4712         estimate D2E/DX2                !
 ! A27   A(10,13,17)           109.4715         estimate D2E/DX2                !
 ! A28   A(10,13,18)           109.4715         estimate D2E/DX2                !
 ! A29   A(16,13,17)           109.4707         estimate D2E/DX2                !
 ! A30   A(16,13,18)           109.4707         estimate D2E/DX2                !
 ! A31   A(17,13,18)           109.4717         estimate D2E/DX2                !
 ! A32   A(13,16,19)           109.4717         estimate D2E/DX2                !
 ! A33   A(13,16,20)           109.4712         estimate D2E/DX2                !
 ! A34   A(13,16,21)           109.4712         estimate D2E/DX2                !
 ! A35   A(19,16,20)           109.471          estimate D2E/DX2                !
 ! A36   A(19,16,21)           109.471          estimate D2E/DX2                !
 ! A37   A(20,16,21)           109.4712         estimate D2E/DX2                !
 ! A38   A(16,19,22)           109.4719         estimate D2E/DX2                !
 ! D1    D(2,1,3,4)            180.0            estimate D2E/DX2                !
 ! D2    D(2,1,3,5)            -60.0005         estimate D2E/DX2                !
 ! D3    D(2,1,3,6)             60.0005         estimate D2E/DX2                !
 ! D4    D(1,3,4,7)            180.0            estimate D2E/DX2                !
 ! D5    D(1,3,4,8)            -60.0001         estimate D2E/DX2                !
 ! D6    D(1,3,4,9)             60.0001         estimate D2E/DX2                !
 ! D7    D(5,3,4,7)             60.0001         estimate D2E/DX2                !
 ! D8    D(5,3,4,8)            180.0            estimate D2E/DX2                !
 ! D9    D(5,3,4,9)            -59.9998         estimate D2E/DX2                !
 ! D10   D(6,3,4,7)            -60.0001         estimate D2E/DX2                !
 ! D11   D(6,3,4,8)             59.9998         estimate D2E/DX2                !
 ! D12   D(6,3,4,9)            180.0            estimate D2E/DX2                !
 ! D13   D(3,4,7,10)           180.0            estimate D2E/DX2                !
 ! D14   D(3,4,7,11)           -59.9999         estimate D2E/DX2                !
 ! D15   D(3,4,7,12)            59.9999         estimate D2E/DX2                !
 ! D16   D(8,4,7,10)            59.9999         estimate D2E/DX2                !
 ! D17   D(8,4,7,11)           180.0            estimate D2E/DX2                !
 ! D18   D(8,4,7,12)           -60.0002         estimate D2E/DX2                !
 ! D19   D(9,4,7,10)           -59.9999         estimate D2E/DX2                !
 ! D20   D(9,4,7,11)            60.0002         estimate D2E/DX2                !
 ! D21   D(9,4,7,12)           180.0            estimate D2E/DX2                !
 ! D22   D(4,7,10,13)          180.0            estimate D2E/DX2                !
 ! D23   D(4,7,10,14)          -60.0001         estimate D2E/DX2                !
 ! D24   D(4,7,10,15)           60.0001         estimate D2E/DX2                !
 ! D25   D(11,7,10,13)          60.0001         estimate D2E/DX2                !
 ! D26   D(11,7,10,14)         180.0            estimate D2E/DX2                !
 ! D27   D(11,7,10,15)         -59.9998         estimate D2E/DX2                !
 ! D28   D(12,7,10,13)         -60.0001         estimate D2E/DX2                !
 ! D29   D(12,7,10,14)          59.9998         estimate D2E/DX2                !
 ! D30   D(12,7,10,15)         180.0            estimate D2E/DX2                !
 ! D31   D(7,10,13,16)         180.0            estimate D2E/DX2                !
 ! D32   D(7,10,13,17)         -60.0005         estimate D2E/DX2                !
 ! D33   D(7,10,13,18)          60.0005         estimate D2E/DX2                !
 ! D34   D(14,10,13,16)         60.0            estimate D2E/DX2                !
 ! D35   D(14,10,13,17)        179.9995         estimate D2E/DX2                !
 ! D36   D(14,10,13,18)        -59.9996         estimate D2E/DX2                !
 ! D37   D(15,10,13,16)        -60.0            estimate D2E/DX2                !
 ! D38   D(15,10,13,17)         59.9996         estimate D2E/DX2                !
 ! D39   D(15,10,13,18)       -179.9995         estimate D2E/DX2                !
 ! D40   D(10,13,16,19)        180.0            estimate D2E/DX2                !
 ! D41   D(10,13,16,20)        -60.0            estimate D2E/DX2                !
 ! D42   D(10,13,16,21)         60.0            estimate D2E/DX2                !
 ! D43   D(17,13,16,19)         60.0            estimate D2E/DX2                !
 ! D44   D(17,13,16,20)        180.0            estimate D2E/DX2                !
 ! D45   D(17,13,16,21)        -60.0            estimate D2E/DX2                !
 ! D46   D(18,13,16,19)        -60.0            estimate D2E/DX2                !
 ! D47   D(18,13,16,20)         60.0            estimate D2E/DX2                !
 ! D48   D(18,13,16,21)        180.0            estimate D2E/DX2                !
 ! D49   D(13,16,19,22)        180.0            estimate D2E/DX2                !
 ! D50   D(20,16,19,22)         59.9998         estimate D2E/DX2                !
 ! D51   D(21,16,19,22)        -59.9998         estimate D2E/DX2                !
 --------------------------------------------------------------------------------
 Trust Radius=3.00D-01 FncErr=1.00D-07 GrdErr=1.00D-06
 Number of steps in this run= 120 maximum allowed number of steps= 132.
 GradGradGradGradGradGradGradGradGradGradGradGradGradGradGradGradGradGrad

 Leave Link  103 at Mon Mar 14 13:48:57 2022, MaxMem=  536870912 cpu:       0.1
 (Enter /opt/gridunesp/dist/gaussian/g09/l202.exe)
                          Input orientation:                          
 ---------------------------------------------------------------------
 Center     Atomic      Atomic             Coordinates (Angstroms)
 Number     Number       Type             X           Y           Z
 ---------------------------------------------------------------------
      1          8           0        0.000000    0.000000    0.000000
      2          1           0        0.000000    0.000000    0.947000
      3          6           0        1.301080    0.000000   -0.459990
      4          6           0        1.301080    0.000000   -1.959990
      5          1           0        1.805480    0.873650   -0.103330
      6          1           0        1.805480   -0.873650   -0.103330
      7          6           0        2.715300    0.000000   -2.459990
      8          1           0        0.796680   -0.873650   -2.316660
      9          1           0        0.796680    0.873650   -2.316660
     10          6           0        2.715300    0.000000   -3.959990
     11          1           0        3.219700    0.873650   -2.103320
     12          1           0        3.219700   -0.873650   -2.103320
     13          6           0        4.129520    0.000000   -4.459980
     14          1           0        2.210900   -0.873650   -4.316660
     15          1           0        2.210900    0.873650   -4.316660
     16          6           0        4.129530    0.000000   -5.959980
     17          1           0        4.633920    0.873650   -4.103320
     18          1           0        4.633920   -0.873650   -4.103320
     19          8           0        5.430600    0.000000   -6.419980
     20          1           0        3.625130   -0.873650   -6.316650
     21          1           0        3.625130    0.873650   -6.316650
     22          1           0        5.430610    0.000000   -7.366980
 ---------------------------------------------------------------------
                    Distance matrix (angstroms):
                    1          2          3          4          5
     1  O    0.000000
     2  H    0.947000   0.000000
     3  C    1.380000   1.916359   0.000000
     4  C    2.352524   3.184870   1.500000   0.000000
     5  H    2.008407   2.264115   1.069995   2.113024   0.000000
     6  H    2.008407   2.264115   1.069995   2.113024   1.747300
     7  C    3.663933   4.356654   2.449493   1.500006   2.672991
     8  H    2.600938   3.471230   2.113033   1.069999   2.994923
     9  H    2.600938   3.471230   2.113033   1.069999   2.432387
    10  C    4.801497   5.608155   3.774920   2.449493   4.057692
    11  H    3.943816   4.520419   2.672995   2.113033   2.449485
    12  H    3.943816   4.520419   2.672995   2.113033   3.008826
    13  C    6.078187   6.803556   4.898979   3.774920   5.014462
    14  H    4.927971   5.775592   4.057701   2.673000   4.579255
    15  H    4.927971   5.775592   4.057701   2.673000   4.232790
    16  C    7.250819   8.047322   6.184660   4.898985   6.361197
    17  H    6.250897   6.909574   5.014473   4.057703   4.898979
    18  H    6.250897   6.909574   5.014473   4.057703   5.201255
    19  O    8.408779   9.152257   7.250822   6.078194   7.335177
    20  H    7.335182   8.164891   6.361206   5.014475   6.705932
    21  H    7.335182   8.164891   6.361206   5.014475   6.474293
    22  H    9.152263   9.930448   8.047331   6.803570   8.164891
                    6          7          8          9         10
     6  H    0.000000
     7  C    2.672991   0.000000
     8  H    2.432387   2.113033   0.000000
     9  H    2.994923   2.113033   1.747300   0.000000
    10  C    4.057692   1.500000   2.672995   2.672995   0.000000
    11  H    3.008826   1.069999   2.994929   2.432394   2.113033
    12  H    2.449485   1.069999   2.432394   2.994929   2.113033
    13  C    5.014462   2.449485   4.057697   4.057697   1.500003
    14  H    4.232790   2.113033   2.449493   3.008833   1.069999
    15  H    4.579255   2.113033   3.008833   2.449493   1.069999
    16  C    6.361197   3.774914   5.014472   5.014472   2.449491
    17  H    5.201255   2.672995   4.579260   4.232796   2.113033
    18  H    4.898979   2.672995   4.232796   4.579260   2.113033
    19  O    7.335177   4.801497   6.250897   6.250897   3.663933
    20  H    6.474293   4.057694   4.898985   5.201260   2.672995
    21  H    6.705932   4.057694   5.201260   4.898985   2.672995
    22  H    8.164891   5.608160   6.909581   6.909581   4.356660
                   11         12         13         14         15
    11  H    0.000000
    12  H    1.747300   0.000000
    13  C    2.672991   2.672991   0.000000
    14  H    2.994930   2.432396   2.113033   0.000000
    15  H    2.432396   2.994930   2.113033   1.747300   0.000000
    16  C    4.057694   4.057694   1.500000   2.672996   2.672996
    17  H    2.449493   3.008833   1.069995   2.994929   2.432394
    18  H    3.008833   2.449493   1.069995   2.432394   2.994929
    19  O    4.927971   4.927971   2.352533   3.943816   3.943816
    20  H    4.579255   4.232791   2.113030   2.449491   3.008831
    21  H    4.232791   4.579255   2.113030   3.008831   2.449491
    22  H    5.775596   5.775596   3.184884   4.520426   4.520426
                   16         17         18         19         20
    16  C    0.000000
    17  H    2.113022   0.000000
    18  H    2.113022   1.747300   0.000000
    19  O    1.379994   2.600938   2.600938   0.000000
    20  H    1.069999   2.994920   2.432383   2.008398   0.000000
    21  H    1.069999   2.432383   2.994920   2.008398   1.747300
    22  H    1.916366   3.471233   3.471233   0.947000   2.264115
                   21         22
    21  H    0.000000
    22  H    2.264115   0.000000
 Stoichiometry    C6H14O2
 Framework group  CS[SG(C6H2O2),X(H12)]
 Deg. of freedom    35
 Full point group                 CS      NOp   2
 Largest Abelian subgroup         CS      NOp   2
 Largest concise Abelian subgroup CS      NOp   2
                         Standard orientation:                         
 ---------------------------------------------------------------------
 Center     Atomic      Atomic             Coordinates (Angstroms)
 Number     Number       Type             X           Y           Z
 ---------------------------------------------------------------------
      1          8           0       -0.555814    4.167488    0.000000
      2          1           0       -1.257626    4.803310    0.000000
      3          6           0       -1.088475    2.894432    0.000000
      4          6           0        0.023158    1.887321    0.000000
      5          1           0       -1.691449    2.760090    0.873650
      6          1           0       -1.691449    2.760090   -0.873650
      7          6           0       -0.555814    0.503555    0.000000
      8          1           0        0.626140    2.021656   -0.873650
      9          1           0        0.626140    2.021656    0.873650
     10          6           0        0.555819   -0.503555    0.000000
     11          1           0       -1.158796    0.369220    0.873650
     12          1           0       -1.158796    0.369220   -0.873650
     13          6           0       -0.023161   -1.887315    0.000000
     14          1           0        1.158801   -0.369221   -0.873650
     15          1           0        1.158801   -0.369221    0.873650
     16          6           0        1.088465   -2.894433    0.000000
     17          1           0       -0.626136   -2.021656    0.873650
     18          1           0       -0.626136   -2.021656   -0.873650
     19          8           0        0.555819   -4.167488    0.000000
     20          1           0        1.691447   -2.760098   -0.873650
     21          1           0        1.691447   -2.760098    0.873650
     22          1           0        1.257623   -4.803318    0.000000
 ---------------------------------------------------------------------
 Rotational constants (GHZ):     12.6469444      0.5112901      0.5004061
 Leave Link  202 at Mon Mar 14 13:48:57 2022, MaxMem=  536870912 cpu:       0.1
 (Enter /opt/gridunesp/dist/gaussian/g09/l301.exe)
 Standard basis: 6-31G(d,p) (6D, 7F)
 Ernie: Thresh=  0.10000D-02 Tol=  0.10000D-05 Strict=F.
 AO basis set in the form of general basis input (Overlap normalization):
      1 0
 S   6 1.00       0.000000000000
      0.5484671660D+04  0.1831074430D-02
      0.8252349460D+03  0.1395017220D-01
      0.1880469580D+03  0.6844507810D-01
      0.5296450000D+02  0.2327143360D+00
      0.1689757040D+02  0.4701928980D+00
      0.5799635340D+01  0.3585208530D+00
 SP   3 1.00       0.000000000000
      0.1553961625D+02 -0.1107775495D+00  0.7087426823D-01
      0.3599933586D+01 -0.1480262627D+00  0.3397528391D+00
      0.1013761750D+01  0.1130767015D+01  0.7271585773D+00
 SP   1 1.00       0.000000000000
      0.2700058226D+00  0.1000000000D+01  0.1000000000D+01
 D   1 1.00       0.000000000000
      0.8000000000D+00  0.1000000000D+01
 ****
      2 0
 S   3 1.00       0.000000000000
      0.1873113696D+02  0.3349460434D-01
      0.2825394365D+01  0.2347269535D+00
      0.6401216923D+00  0.8137573261D+00
 S   1 1.00       0.000000000000
      0.1612777588D+00  0.1000000000D+01
 P   1 1.00       0.000000000000
      0.1100000000D+01  0.1000000000D+01
 ****
      3 0
 S   6 1.00       0.000000000000
      0.3047524880D+04  0.1834737132D-02
      0.4573695180D+03  0.1403732281D-01
      0.1039486850D+03  0.6884262226D-01
      0.2921015530D+02  0.2321844432D+00
      0.9286662960D+01  0.4679413484D+00
      0.3163926960D+01  0.3623119853D+00
 SP   3 1.00       0.000000000000
      0.7868272350D+01 -0.1193324198D+00  0.6899906659D-01
      0.1881288540D+01 -0.1608541517D+00  0.3164239610D+00
      0.5442492580D+00  0.1143456438D+01  0.7443082909D+00
 SP   1 1.00       0.000000000000
      0.1687144782D+00  0.1000000000D+01  0.1000000000D+01
 D   1 1.00       0.000000000000
      0.8000000000D+00  0.1000000000D+01
 ****
      4 0
 S   6 1.00       0.000000000000
      0.3047524880D+04  0.1834737132D-02
      0.4573695180D+03  0.1403732281D-01
      0.1039486850D+03  0.6884262226D-01
      0.2921015530D+02  0.2321844432D+00
      0.9286662960D+01  0.4679413484D+00
      0.3163926960D+01  0.3623119853D+00
 SP   3 1.00       0.000000000000
      0.7868272350D+01 -0.1193324198D+00  0.6899906659D-01
      0.1881288540D+01 -0.1608541517D+00  0.3164239610D+00
      0.5442492580D+00  0.1143456438D+01  0.7443082909D+00
 SP   1 1.00       0.000000000000
      0.1687144782D+00  0.1000000000D+01  0.1000000000D+01
 D   1 1.00       0.000000000000
      0.8000000000D+00  0.1000000000D+01
 ****
      5 0
 S   3 1.00       0.000000000000
      0.1873113696D+02  0.3349460434D-01
      0.2825394365D+01  0.2347269535D+00
      0.6401216923D+00  0.8137573261D+00
 S   1 1.00       0.000000000000
      0.1612777588D+00  0.1000000000D+01
 P   1 1.00       0.000000000000
      0.1100000000D+01  0.1000000000D+01
 ****
      6 0
 S   3 1.00       0.000000000000
      0.1873113696D+02  0.3349460434D-01
      0.2825394365D+01  0.2347269535D+00
      0.6401216923D+00  0.8137573261D+00
 S   1 1.00       0.000000000000
      0.1612777588D+00  0.1000000000D+01
 P   1 1.00       0.000000000000
      0.1100000000D+01  0.1000000000D+01
 ****
      7 0
 S   6 1.00       0.000000000000
      0.3047524880D+04  0.1834737132D-02
      0.4573695180D+03  0.1403732281D-01
      0.1039486850D+03  0.6884262226D-01
      0.2921015530D+02  0.2321844432D+00
      0.9286662960D+01  0.4679413484D+00
      0.3163926960D+01  0.3623119853D+00
 SP   3 1.00       0.000000000000
      0.7868272350D+01 -0.1193324198D+00  0.6899906659D-01
      0.1881288540D+01 -0.1608541517D+00  0.3164239610D+00
      0.5442492580D+00  0.1143456438D+01  0.7443082909D+00
 SP   1 1.00       0.000000000000
      0.1687144782D+00  0.1000000000D+01  0.1000000000D+01
 D   1 1.00       0.000000000000
      0.8000000000D+00  0.1000000000D+01
 ****
      8 0
 S   3 1.00       0.000000000000
      0.1873113696D+02  0.3349460434D-01
      0.2825394365D+01  0.2347269535D+00
      0.6401216923D+00  0.8137573261D+00
 S   1 1.00       0.000000000000
      0.1612777588D+00  0.1000000000D+01
 P   1 1.00       0.000000000000
      0.1100000000D+01  0.1000000000D+01
 ****
      9 0
 S   3 1.00       0.000000000000
      0.1873113696D+02  0.3349460434D-01
      0.2825394365D+01  0.2347269535D+00
      0.6401216923D+00  0.8137573261D+00
 S   1 1.00       0.000000000000
      0.1612777588D+00  0.1000000000D+01
 P   1 1.00       0.000000000000
      0.1100000000D+01  0.1000000000D+01
 ****
     10 0
 S   6 1.00       0.000000000000
      0.3047524880D+04  0.1834737132D-02
      0.4573695180D+03  0.1403732281D-01
      0.1039486850D+03  0.6884262226D-01
      0.2921015530D+02  0.2321844432D+00
      0.9286662960D+01  0.4679413484D+00
      0.3163926960D+01  0.3623119853D+00
 SP   3 1.00       0.000000000000
      0.7868272350D+01 -0.1193324198D+00  0.6899906659D-01
      0.1881288540D+01 -0.1608541517D+00  0.3164239610D+00
      0.5442492580D+00  0.1143456438D+01  0.7443082909D+00
 SP   1 1.00       0.000000000000
      0.1687144782D+00  0.1000000000D+01  0.1000000000D+01
 D   1 1.00       0.000000000000
      0.8000000000D+00  0.1000000000D+01
 ****
     11 0
 S   3 1.00       0.000000000000
      0.1873113696D+02  0.3349460434D-01
      0.2825394365D+01  0.2347269535D+00
      0.6401216923D+00  0.8137573261D+00
 S   1 1.00       0.000000000000
      0.1612777588D+00  0.1000000000D+01
 P   1 1.00       0.000000000000
      0.1100000000D+01  0.1000000000D+01
 ****
     12 0
 S   3 1.00       0.000000000000
      0.1873113696D+02  0.3349460434D-01
      0.2825394365D+01  0.2347269535D+00
      0.6401216923D+00  0.8137573261D+00
 S   1 1.00       0.000000000000
      0.1612777588D+00  0.1000000000D+01
 P   1 1.00       0.000000000000
      0.1100000000D+01  0.1000000000D+01
 ****
     13 0
 S   6 1.00       0.000000000000
      0.3047524880D+04  0.1834737132D-02
      0.4573695180D+03  0.1403732281D-01
      0.1039486850D+03  0.6884262226D-01
      0.2921015530D+02  0.2321844432D+00
      0.9286662960D+01  0.4679413484D+00
      0.3163926960D+01  0.3623119853D+00
 SP   3 1.00       0.000000000000
      0.7868272350D+01 -0.1193324198D+00  0.6899906659D-01
      0.1881288540D+01 -0.1608541517D+00  0.3164239610D+00
      0.5442492580D+00  0.1143456438D+01  0.7443082909D+00
 SP   1 1.00       0.000000000000
      0.1687144782D+00  0.1000000000D+01  0.1000000000D+01
 D   1 1.00       0.000000000000
      0.8000000000D+00  0.1000000000D+01
 ****
     14 0
 S   3 1.00       0.000000000000
      0.1873113696D+02  0.3349460434D-01
      0.2825394365D+01  0.2347269535D+00
      0.6401216923D+00  0.8137573261D+00
 S   1 1.00       0.000000000000
      0.1612777588D+00  0.1000000000D+01
 P   1 1.00       0.000000000000
      0.1100000000D+01  0.1000000000D+01
 ****
     15 0
 S   3 1.00       0.000000000000
      0.1873113696D+02  0.3349460434D-01
      0.2825394365D+01  0.2347269535D+00
      0.6401216923D+00  0.8137573261D+00
 S   1 1.00       0.000000000000
      0.1612777588D+00  0.1000000000D+01
 P   1 1.00       0.000000000000
      0.1100000000D+01  0.1000000000D+01
 ****
     16 0
 S   6 1.00       0.000000000000
      0.3047524880D+04  0.1834737132D-02
      0.4573695180D+03  0.1403732281D-01
      0.1039486850D+03  0.6884262226D-01
      0.2921015530D+02  0.2321844432D+00
      0.9286662960D+01  0.4679413484D+00
      0.3163926960D+01  0.3623119853D+00
 SP   3 1.00       0.000000000000
      0.7868272350D+01 -0.1193324198D+00  0.6899906659D-01
      0.1881288540D+01 -0.1608541517D+00  0.3164239610D+00
      0.5442492580D+00  0.1143456438D+01  0.7443082909D+00
 SP   1 1.00       0.000000000000
      0.1687144782D+00  0.1000000000D+01  0.1000000000D+01
 D   1 1.00       0.000000000000
      0.8000000000D+00  0.1000000000D+01
 ****
     17 0
 S   3 1.00       0.000000000000
      0.1873113696D+02  0.3349460434D-01
      0.2825394365D+01  0.2347269535D+00
      0.6401216923D+00  0.8137573261D+00
 S   1 1.00       0.000000000000
      0.1612777588D+00  0.1000000000D+01
 P   1 1.00       0.000000000000
      0.1100000000D+01  0.1000000000D+01
 ****
     18 0
 S   3 1.00       0.000000000000
      0.1873113696D+02  0.3349460434D-01
      0.2825394365D+01  0.2347269535D+00
      0.6401216923D+00  0.8137573261D+00
 S   1 1.00       0.000000000000
      0.1612777588D+00  0.1000000000D+01
 P   1 1.00       0.000000000000
      0.1100000000D+01  0.1000000000D+01
 ****
     19 0
 S   6 1.00       0.000000000000
      0.5484671660D+04  0.1831074430D-02
      0.8252349460D+03  0.1395017220D-01
      0.1880469580D+03  0.6844507810D-01
      0.5296450000D+02  0.2327143360D+00
      0.1689757040D+02  0.4701928980D+00
      0.5799635340D+01  0.3585208530D+00
 SP   3 1.00       0.000000000000
      0.1553961625D+02 -0.1107775495D+00  0.7087426823D-01
      0.3599933586D+01 -0.1480262627D+00  0.3397528391D+00
      0.1013761750D+01  0.1130767015D+01  0.7271585773D+00
 SP   1 1.00       0.000000000000
      0.2700058226D+00  0.1000000000D+01  0.1000000000D+01
 D   1 1.00       0.000000000000
      0.8000000000D+00  0.1000000000D+01
 ****
     20 0
 S   3 1.00       0.000000000000
      0.1873113696D+02  0.3349460434D-01
      0.2825394365D+01  0.2347269535D+00
      0.6401216923D+00  0.8137573261D+00
 S   1 1.00       0.000000000000
      0.1612777588D+00  0.1000000000D+01
 P   1 1.00       0.000000000000
      0.1100000000D+01  0.1000000000D+01
 ****
     21 0
 S   3 1.00       0.000000000000
      0.1873113696D+02  0.3349460434D-01
      0.2825394365D+01  0.2347269535D+00
      0.6401216923D+00  0.8137573261D+00
 S   1 1.00       0.000000000000
      0.1612777588D+00  0.1000000000D+01
 P   1 1.00       0.000000000000
      0.1100000000D+01  0.1000000000D+01
 ****
     22 0
 S   3 1.00       0.000000000000
      0.1873113696D+02  0.3349460434D-01
      0.2825394365D+01  0.2347269535D+00
      0.6401216923D+00  0.8137573261D+00
 S   1 1.00       0.000000000000
      0.1612777588D+00  0.1000000000D+01
 P   1 1.00       0.000000000000
      0.1100000000D+01  0.1000000000D+01
 ****

 There are   126 symmetry adapted basis functions of A'  symmetry.
 There are    64 symmetry adapted basis functions of A"  symmetry.
 Integral buffers will be    131072 words long.
 Raffenetti 2 integral format.
 Two-electron integral symmetry is turned on.
   190 basis functions,   322 primitive gaussians,   190 cartesian basis functions
    33 alpha electrons       33 beta electrons
       nuclear repulsion energy       385.6409384917 Hartrees.
 IExCor=  402 DFT=T Ex+Corr=B3LYP ExCW=0 ScaHFX=  0.200000
 ScaDFX=  0.800000  0.720000  1.000000  0.810000 ScalE2=  1.000000  1.000000
 IRadAn=      0 IRanWt=     -1 IRanGd=            0 ICorTp=0
 NAtoms=   22 NActive=   22 NUniq=   16 SFac= 1.42D+00 NAtFMM=   80 NAOKFM=F Big=F
 ------------------------------------------------------------------------------
 Polarizable Continuum Model (PCM)
 =================================
 Model                : PCM.
 Atomic radii         : UFF (Universal Force Field).
 Polarization charges : Total charges.
 Charge compensation  : None.
 Solution method      : Matrix inversion.
 Cavity type          : Scaled VdW (van der Waals Surface) (Alpha=1.100).
 Cavity algorithm     : GePol (No added spheres)
                        Default sphere list used, NSphG=   22.
                        Lebedev-Laikov grids with approx.  5.0 points / Ang**2.
                        Smoothing algorithm: Karplus/York (Gamma=1.0000).
                        Polarization charges: spherical gaussians, with
                                              point-specific exponents (IZeta= 3).
                        Self-potential: point-specific (ISelfS= 7).
                        Self-field    : sphere-specific E.n sum rule (ISelfD= 2).
 1st derivatives      : Analytical E(r).r(x)/FMM algorithm (CHGder, D1EAlg=3).
                        Cavity 1st derivative terms included.
 Solvent              : Water, Eps=  78.355300 Eps(inf)=   1.777849
 ------------------------------------------------------------------------------
 GePol: Number of generator spheres                  =      22
 GePol: Total number of spheres                      =      22
 GePol: Number of exposed spheres                    =      22 (100.00%)
 GePol: Number of points                             =    1610
 GePol: Average weight of points                     =       0.13
 GePol: Minimum weight of points                     =   0.19D-05
 GePol: Maximum weight of points                     =    0.20557
 GePol: Number of points with low weight             =      80
 GePol: Fraction of low-weight points (<1% of avg)   =       4.97%
 GePol: Cavity surface area                          =    212.102 Ang**2
 GePol: Cavity volume                                =    201.553 Ang**3
 Leave Link  301 at Mon Mar 14 13:48:57 2022, MaxMem=  536870912 cpu:       0.4
 (Enter /opt/gridunesp/dist/gaussian/g09/l302.exe)
 NPDir=0 NMtPBC=     1 NCelOv=     1 NCel=       1 NClECP=     1 NCelD=      1
         NCelK=      1 NCelE2=     1 NClLst=     1 CellRange=     0.0.
 One-electron integrals computed using PRISM.
 One-electron integral symmetry used in STVInt
 NBasis=   190 RedAO= T  NBF=   126    64
 NBsUse=   190 1.00D-06 NBFU=   126    64
 Precomputing XC quadrature grid using
 IXCGrd= 2 IRadAn=           0 IRanWt=          -1 IRanGd=           0 AccXCQ= 1.00D-10.
 NRdTot=    1392 NPtTot=      177552 NUsed=      187595 NTot=      187627
 NSgBfM=   189   189   189   189   189 NAtAll=    22    22.
 Leave Link  302 at Mon Mar 14 13:48:57 2022, MaxMem=  536870912 cpu:       1.4
 (Enter /opt/gridunesp/dist/gaussian/g09/l303.exe)
 DipDrv:  MaxL=1.
 Leave Link  303 at Mon Mar 14 13:48:57 2022, MaxMem=  536870912 cpu:       0.3
 (Enter /opt/gridunesp/dist/gaussian/g09/l401.exe)
 Harris functional with IExCor=  402 diagonalized for initial guess.
 ExpMin= 1.61D-01 ExpMax= 5.48D+03 ExpMxC= 8.25D+02 IAcc=1 IRadAn=         1 AccDes= 0.00D+00
 HarFok:  IExCor=  402 AccDes= 0.00D+00 IRadAn=         1 IDoV= 1
 ScaDFX=  1.000000  1.000000  1.000000  1.000000
 FoFCou: FMM=F IPFlag=           0 FMFlag=      100000 FMFlg1=           0
         NFxFlg=           0 DoJE=T BraDBF=F KetDBF=T FulRan=T
         Omega=  0.000000  0.000000  1.000000  0.000000  0.000000 ICntrl=     500 IOpCl=  0
         NMat0=    1 NMatS0=    1 NMatT0=    0 NMatD0=    1 NMtDS0=    0 NMtDT0=    0
         I1Cent=           4 NGrid=           0.
 Petite list used in FoFCou.
 Harris En= -387.629611560521    
 Initial guess orbital symmetries:
       Occupied  (A') (A') (A') (A') (A') (A') (A') (A') (A') (A')
                 (A') (A') (A') (A') (A') (A') (A') (A') (A") (A")
                 (A') (A") (A') (A') (A") (A') (A') (A") (A") (A')
                 (A') (A") (A")
       Virtual   (A') (A') (A') (A') (A") (A') (A') (A") (A') (A')
                 (A') (A') (A') (A") (A") (A") (A") (A') (A') (A')
                 (A') (A') (A') (A') (A') (A") (A") (A") (A') (A')
                 (A') (A') (A") (A') (A') (A') (A") (A") (A') (A")
                 (A') (A') (A") (A") (A') (A') (A") (A') (A') (A")
                 (A') (A') (A') (A") (A') (A') (A") (A') (A") (A')
                 (A") (A') (A') (A') (A') (A') (A') (A') (A") (A')
                 (A") (A") (A') (A") (A") (A") (A") (A') (A') (A')
                 (A') (A') (A') (A') (A") (A") (A') (A') (A') (A")
                 (A') (A") (A") (A") (A") (A") (A') (A") (A") (A')
                 (A") (A") (A") (A') (A') (A') (A') (A') (A") (A")
                 (A') (A") (A') (A') (A') (A') (A") (A') (A") (A")
                 (A') (A') (A') (A") (A') (A') (A') (A") (A") (A')
                 (A') (A') (A') (A') (A') (A') (A") (A') (A') (A')
                 (A') (A") (A') (A") (A') (A') (A") (A") (A") (A')
                 (A') (A') (A') (A') (A') (A') (A')
 The electronic state of the initial guess is 1-A'.
 Leave Link  401 at Mon Mar 14 13:48:57 2022, MaxMem=  536870912 cpu:       2.1
 (Enter /opt/gridunesp/dist/gaussian/g09/l502.exe)
 Closed shell SCF:
 Requested convergence on RMS density matrix=1.00D-08 within 128 cycles.
 Requested convergence on MAX density matrix=1.00D-06.
 Requested convergence on             energy=1.00D-06.
 No special actions if energy rises.
 Using DIIS extrapolation, IDIIS=  1040.
 Integral symmetry usage will be decided dynamically.
       187384 words used for storage of precomputed grid.
 Keep R1 ints in memory in canonical form, NReq=171003760.
 IEnd=      317062 IEndB=      317062 NGot=   536870912 MDV=   371977168
 LenX=   371977168 LenY=   371940627
 Symmetry not used in FoFDir.
 MinBra= 0 MaxBra= 2 Meth= 1.
 IRaf=       0 NMat=   1 IRICut=       1 DoRegI=T DoRafI=F ISym2E= 0 JSym2E=0.

 Cycle   1  Pass 1  IDiag  1:
 E= -387.187281485757    
 DIIS: error= 4.37D-02 at cycle   1 NSaved=   1.
 NSaved= 1 IEnMin= 1 EnMin= -387.187281485757     IErMin= 1 ErrMin= 4.37D-02
 ErrMax= 4.37D-02 EMaxC= 1.00D-01 BMatC= 3.25D-01 BMatP= 3.25D-01
 IDIUse=3 WtCom= 5.63D-01 WtEn= 4.37D-01
 Coeff-Com:  0.100D+01
 Coeff-En:   0.100D+01
 Coeff:      0.100D+01
 Gap=     0.322 Goal=   None    Shift=    0.000
 GapD=    0.322 DampG=1.000 DampE=0.500 DampFc=0.5000 IDamp=-1.
 Damping current iteration by 5.00D-01
 RMSDP=6.65D-03 MaxDP=1.38D-01              OVMax= 1.95D-01

 Cycle   2  Pass 1  IDiag  1:
 E= -387.331777973472     Delta-E=       -0.144496487715 Rises=F Damp=T
 DIIS: error= 8.57D-03 at cycle   2 NSaved=   2.
 NSaved= 2 IEnMin= 2 EnMin= -387.331777973472     IErMin= 2 ErrMin= 8.57D-03
 ErrMax= 8.57D-03 EMaxC= 1.00D-01 BMatC= 1.23D-02 BMatP= 3.25D-01
 IDIUse=3 WtCom= 9.14D-01 WtEn= 8.57D-02
 Coeff-Com:  0.802D-01 0.920D+00
 Coeff-En:   0.115D+00 0.885D+00
 Coeff:      0.831D-01 0.917D+00
 Gap=     0.357 Goal=   None    Shift=    0.000
 RMSDP=8.46D-04 MaxDP=1.40D-02 DE=-1.44D-01 OVMax= 9.52D-02

 Cycle   3  Pass 1  IDiag  1:
 E= -387.508464118894     Delta-E=       -0.176686145422 Rises=F Damp=F
 DIIS: error= 2.94D-03 at cycle   3 NSaved=   3.
 NSaved= 3 IEnMin= 3 EnMin= -387.508464118894     IErMin= 3 ErrMin= 2.94D-03
 ErrMax= 2.94D-03 EMaxC= 1.00D-01 BMatC= 2.19D-03 BMatP= 1.23D-02
 IDIUse=3 WtCom= 9.71D-01 WtEn= 2.94D-02
 Coeff-Com:  0.459D-02 0.247D+00 0.748D+00
 Coeff-En:   0.000D+00 0.000D+00 0.100D+01
 Coeff:      0.446D-02 0.240D+00 0.756D+00
 Gap=     0.351 Goal=   None    Shift=    0.000
 RMSDP=3.22D-04 MaxDP=9.31D-03 DE=-1.77D-01 OVMax= 1.05D-02

 Cycle   4  Pass 1  IDiag  1:
 E= -387.509266636065     Delta-E=       -0.000802517170 Rises=F Damp=F
 DIIS: error= 2.09D-03 at cycle   4 NSaved=   4.
 NSaved= 4 IEnMin= 4 EnMin= -387.509266636065     IErMin= 4 ErrMin= 2.09D-03
 ErrMax= 2.09D-03 EMaxC= 1.00D-01 BMatC= 1.12D-03 BMatP= 2.19D-03
 IDIUse=3 WtCom= 9.79D-01 WtEn= 2.09D-02
 Coeff-Com: -0.273D-02 0.435D-01 0.424D+00 0.535D+00
 Coeff-En:   0.000D+00 0.000D+00 0.350D+00 0.650D+00
 Coeff:     -0.267D-02 0.426D-01 0.423D+00 0.537D+00
 Gap=     0.352 Goal=   None    Shift=    0.000
 RMSDP=1.51D-04 MaxDP=4.12D-03 DE=-8.03D-04 OVMax= 4.45D-03

 Cycle   5  Pass 1  IDiag  1:
 E= -387.510145294937     Delta-E=       -0.000878658872 Rises=F Damp=F
 DIIS: error= 1.66D-04 at cycle   5 NSaved=   5.
 NSaved= 5 IEnMin= 5 EnMin= -387.510145294937     IErMin= 5 ErrMin= 1.66D-04
 ErrMax= 1.66D-04 EMaxC= 1.00D-01 BMatC= 8.75D-06 BMatP= 1.12D-03
 IDIUse=3 WtCom= 9.98D-01 WtEn= 1.66D-03
 Coeff-Com: -0.548D-03 0.552D-03 0.823D-01 0.148D+00 0.770D+00
 Coeff-En:   0.000D+00 0.000D+00 0.000D+00 0.000D+00 0.100D+01
 Coeff:     -0.547D-03 0.551D-03 0.821D-01 0.147D+00 0.770D+00
 Gap=     0.352 Goal=   None    Shift=    0.000
 RMSDP=1.73D-05 MaxDP=3.20D-04 DE=-8.79D-04 OVMax= 5.02D-04

 Cycle   6  Pass 1  IDiag  1:
 E= -387.510151984884     Delta-E=       -0.000006689948 Rises=F Damp=F
 DIIS: error= 6.02D-05 at cycle   6 NSaved=   6.
 NSaved= 6 IEnMin= 6 EnMin= -387.510151984884     IErMin= 6 ErrMin= 6.02D-05
 ErrMax= 6.02D-05 EMaxC= 1.00D-01 BMatC= 8.63D-07 BMatP= 8.75D-06
 IDIUse=1 WtCom= 1.00D+00 WtEn= 0.00D+00
 Coeff-Com: -0.191D-03-0.747D-03 0.324D-01 0.629D-01 0.380D+00 0.526D+00
 Coeff:     -0.191D-03-0.747D-03 0.324D-01 0.629D-01 0.380D+00 0.526D+00
 Gap=     0.352 Goal=   None    Shift=    0.000
 RMSDP=4.96D-06 MaxDP=1.36D-04 DE=-6.69D-06 OVMax= 1.83D-04

 Cycle   7  Pass 1  IDiag  1:
 E= -387.510152770500     Delta-E=       -0.000000785616 Rises=F Damp=F
 DIIS: error= 1.15D-05 at cycle   7 NSaved=   7.
 NSaved= 7 IEnMin= 7 EnMin= -387.510152770500     IErMin= 7 ErrMin= 1.15D-05
 ErrMax= 1.15D-05 EMaxC= 1.00D-01 BMatC= 2.01D-08 BMatP= 8.63D-07
 IDIUse=1 WtCom= 1.00D+00 WtEn= 0.00D+00
 Coeff-Com:  0.231D-04-0.285D-03 0.159D-02 0.473D-02 0.396D-01 0.152D+00
 Coeff-Com:  0.802D+00
 Coeff:      0.231D-04-0.285D-03 0.159D-02 0.473D-02 0.396D-01 0.152D+00
 Coeff:      0.802D+00
 Gap=     0.352 Goal=   None    Shift=    0.000
 RMSDP=8.35D-07 MaxDP=1.79D-05 DE=-7.86D-07 OVMax= 3.17D-05

 Cycle   8  Pass 1  IDiag  1:
 E= -387.510152788868     Delta-E=       -0.000000018368 Rises=F Damp=F
 DIIS: error= 1.86D-06 at cycle   8 NSaved=   8.
 NSaved= 8 IEnMin= 8 EnMin= -387.510152788868     IErMin= 8 ErrMin= 1.86D-06
 ErrMax= 1.86D-06 EMaxC= 1.00D-01 BMatC= 9.12D-10 BMatP= 2.01D-08
 IDIUse=1 WtCom= 1.00D+00 WtEn= 0.00D+00
 Coeff-Com:  0.154D-04-0.654D-04-0.650D-03-0.644D-03-0.799D-03 0.293D-01
 Coeff-Com:  0.263D+00 0.710D+00
 Coeff:      0.154D-04-0.654D-04-0.650D-03-0.644D-03-0.799D-03 0.293D-01
 Coeff:      0.263D+00 0.710D+00
 Gap=     0.352 Goal=   None    Shift=    0.000
 RMSDP=1.76D-07 MaxDP=6.19D-06 DE=-1.84D-08 OVMax= 6.89D-06

 Cycle   9  Pass 1  IDiag  1:
 E= -387.510152789603     Delta-E=       -0.000000000735 Rises=F Damp=F
 DIIS: error= 7.54D-07 at cycle   9 NSaved=   9.
 NSaved= 9 IEnMin= 9 EnMin= -387.510152789603     IErMin= 9 ErrMin= 7.54D-07
 ErrMax= 7.54D-07 EMaxC= 1.00D-01 BMatC= 1.23D-10 BMatP= 9.12D-10
 IDIUse=1 WtCom= 1.00D+00 WtEn= 0.00D+00
 Coeff-Com:  0.571D-05-0.158D-04-0.403D-03-0.550D-03-0.253D-02 0.594D-02
 Coeff-Com:  0.859D-01 0.342D+00 0.570D+00
 Coeff:      0.571D-05-0.158D-04-0.403D-03-0.550D-03-0.253D-02 0.594D-02
 Coeff:      0.859D-01 0.342D+00 0.570D+00
 Gap=     0.352 Goal=   None    Shift=    0.000
 RMSDP=4.93D-08 MaxDP=1.72D-06 DE=-7.35D-10 OVMax= 1.93D-06

 Cycle  10  Pass 1  IDiag  1:
 E= -387.510152789710     Delta-E=       -0.000000000107 Rises=F Damp=F
 DIIS: error= 7.16D-08 at cycle  10 NSaved=  10.
 NSaved=10 IEnMin=10 EnMin= -387.510152789710     IErMin=10 ErrMin= 7.16D-08
 ErrMax= 7.16D-08 EMaxC= 1.00D-01 BMatC= 1.24D-12 BMatP= 1.23D-10
 IDIUse=1 WtCom= 1.00D+00 WtEn= 0.00D+00
 Coeff-Com: -0.362D-07 0.760D-06-0.463D-04-0.655D-04-0.438D-03-0.318D-03
 Coeff-Com:  0.455D-02 0.313D-01 0.114D+00 0.851D+00
 Coeff:     -0.362D-07 0.760D-06-0.463D-04-0.655D-04-0.438D-03-0.318D-03
 Coeff:      0.455D-02 0.313D-01 0.114D+00 0.851D+00
 Gap=     0.352 Goal=   None    Shift=    0.000
 RMSDP=6.40D-09 MaxDP=1.33D-07 DE=-1.07D-10 OVMax= 2.15D-07

 Error on total polarization charges =  0.00769
 SCF Done:  E(RB3LYP) =  -387.510152790     A.U. after   10 cycles
             Convg  =    0.6403D-08             -V/T =  2.0065
 KE= 3.849915764520D+02 PE=-1.675309562125D+03 EE= 5.171668943918D+02
 Leave Link  502 at Mon Mar 14 13:49:11 2022, MaxMem=  536870912 cpu:     105.1
 (Enter /opt/gridunesp/dist/gaussian/g09/l601.exe)
 Copying SCF densities to generalized density rwf, IOpCl= 0 IROHF=0.

 **********************************************************************

            Population analysis using the SCF density.

 **********************************************************************

 Orbital symmetries:
       Occupied  (A') (A') (A') (A') (A') (A') (A') (A') (A') (A')
                 (A') (A') (A') (A') (A') (A') (A') (A') (A") (A")
                 (A") (A') (A') (A") (A') (A') (A") (A') (A") (A')
                 (A') (A") (A")
       Virtual   (A') (A') (A') (A") (A') (A') (A") (A') (A') (A')
                 (A") (A") (A") (A") (A') (A') (A') (A') (A') (A')
                 (A') (A') (A') (A') (A') (A") (A") (A") (A') (A')
                 (A") (A') (A') (A') (A') (A') (A') (A") (A") (A')
                 (A") (A") (A') (A') (A") (A') (A") (A') (A') (A")
                 (A') (A') (A') (A') (A") (A') (A") (A') (A") (A')
                 (A') (A") (A') (A') (A') (A') (A') (A') (A") (A")
                 (A') (A") (A') (A") (A") (A") (A") (A') (A') (A')
                 (A') (A') (A') (A') (A") (A") (A') (A') (A') (A")
                 (A") (A') (A") (A") (A") (A") (A') (A") (A") (A')
                 (A") (A") (A") (A') (A') (A') (A') (A') (A") (A")
                 (A') (A') (A") (A') (A') (A') (A") (A") (A') (A')
                 (A") (A') (A') (A') (A") (A') (A') (A") (A') (A')
                 (A") (A') (A') (A') (A') (A') (A') (A") (A') (A')
                 (A') (A") (A') (A") (A') (A') (A") (A") (A") (A')
                 (A') (A') (A') (A') (A') (A') (A')
 The electronic state is 1-A'.
 Alpha  occ. eigenvalues --  -19.13261 -19.13261 -10.20996 -10.20996 -10.16356
 Alpha  occ. eigenvalues --  -10.16330 -10.16168 -10.16168  -1.02434  -1.02432
 Alpha  occ. eigenvalues --   -0.81785  -0.76899  -0.69925  -0.62716  -0.58445
 Alpha  occ. eigenvalues --   -0.58141  -0.51253  -0.50767  -0.50058  -0.47727
 Alpha  occ. eigenvalues --   -0.43612  -0.42462  -0.40900  -0.38439  -0.37607
 Alpha  occ. eigenvalues --   -0.34497  -0.34125  -0.33069  -0.32844  -0.31919
 Alpha  occ. eigenvalues --   -0.29682  -0.26129  -0.26041
 Alpha virt. eigenvalues --    0.09143   0.09285   0.09758   0.12360   0.12475
 Alpha virt. eigenvalues --    0.14094   0.16696   0.17303   0.19175   0.19667
 Alpha virt. eigenvalues --    0.21065   0.21277   0.22246   0.23137   0.23193
 Alpha virt. eigenvalues --    0.23202   0.24850   0.26127   0.27528   0.34006
 Alpha virt. eigenvalues --    0.36052   0.46661   0.53250   0.55556   0.55649
 Alpha virt. eigenvalues --    0.56627   0.57355   0.59765   0.60593   0.62260
 Alpha virt. eigenvalues --    0.67818   0.69943   0.70008   0.71353   0.74831
 Alpha virt. eigenvalues --    0.77087   0.77172   0.78097   0.80767   0.81889
 Alpha virt. eigenvalues --    0.82969   0.85434   0.87509   0.88896   0.89138
 Alpha virt. eigenvalues --    0.92083   0.93103   0.94143   0.94664   0.96123
 Alpha virt. eigenvalues --    0.96796   0.98385   0.98406   0.99140   0.99157
 Alpha virt. eigenvalues --    1.00369   1.06479   1.17057   1.21230   1.22523
 Alpha virt. eigenvalues --    1.29270   1.29761   1.35288   1.36073   1.41740
 Alpha virt. eigenvalues --    1.43415   1.47995   1.50276   1.55962   1.59276
 Alpha virt. eigenvalues --    1.59904   1.60648   1.61098   1.65805   1.68632
 Alpha virt. eigenvalues --    1.71415   1.71831   1.78386   1.81693   1.88960
 Alpha virt. eigenvalues --    1.90822   1.91133   1.93702   1.96071   1.99183
 Alpha virt. eigenvalues --    1.99271   2.01190   2.03296   2.06597   2.09797
 Alpha virt. eigenvalues --    2.10851   2.11017   2.11372   2.12621   2.18708
 Alpha virt. eigenvalues --    2.19165   2.20769   2.26522   2.28653   2.31212
 Alpha virt. eigenvalues --    2.31779   2.33692   2.34665   2.37335   2.37454
 Alpha virt. eigenvalues --    2.40834   2.41263   2.43707   2.45619   2.50042
 Alpha virt. eigenvalues --    2.52973   2.59919   2.61091   2.65597   2.69657
 Alpha virt. eigenvalues --    2.69741   2.69822   2.71518   2.73682   2.77547
 Alpha virt. eigenvalues --    2.78166   2.78678   2.82424   2.87081   2.88555
 Alpha virt. eigenvalues --    2.91797   2.91999   2.95144   2.96806   2.97732
 Alpha virt. eigenvalues --    2.97780   3.00156   3.01089   3.06988   3.07897
 Alpha virt. eigenvalues --    3.30375   3.33089   3.33307   3.33319   3.35686
 Alpha virt. eigenvalues --    3.40575   3.42416   3.47213   3.52770   3.52775
 Alpha virt. eigenvalues --    3.55828   3.61141   3.64606   3.64966   4.02627
 Alpha virt. eigenvalues --    4.03286   4.29077   4.37980   4.47316   4.56334
 Alpha virt. eigenvalues --    4.67449   4.82996
     Molecular Orbital Coefficients:
                           1         2         3         4         5
                           O         O         O         O         O
     Eigenvalues --   -19.13261 -19.13261 -10.20996 -10.20996 -10.16356
   1 1   O  1S          0.98423   0.12978  -0.00008  -0.00010  -0.00004
   2        2S          0.02576   0.00340  -0.00010  -0.00018  -0.00018
   3        2PX        -0.00107  -0.00014   0.00004   0.00005   0.00000
   4        2PY        -0.00002  -0.00001   0.00007   0.00008   0.00003
   5        2PZ         0.00000   0.00000   0.00000   0.00000   0.00000
   6        3S          0.01200   0.00162   0.00136   0.00175   0.00086
   7        3PX        -0.00011  -0.00004   0.00024   0.00018   0.00003
   8        3PY        -0.00057  -0.00007  -0.00002  -0.00018  -0.00040
   9        3PZ         0.00000   0.00000   0.00000   0.00000   0.00000
  10        4XX        -0.00791  -0.00104  -0.00021  -0.00025  -0.00014
  11        4YY        -0.00794  -0.00105  -0.00051  -0.00053  -0.00008
  12        4ZZ        -0.00800  -0.00105   0.00005  -0.00001  -0.00013
  13        4XY        -0.00014  -0.00002  -0.00022  -0.00019   0.00003
  14        4XZ         0.00000   0.00000   0.00000   0.00000   0.00000
  15        4YZ         0.00000   0.00000   0.00000   0.00000   0.00000
  16 2   H  1S          0.00023   0.00002   0.00009   0.00008   0.00004
  17        2S         -0.00123  -0.00017   0.00006   0.00014   0.00015
  18        3PX        -0.00016  -0.00002  -0.00001   0.00000   0.00003
  19        3PY         0.00024   0.00004  -0.00012  -0.00013  -0.00003
  20        3PZ         0.00000   0.00000   0.00000   0.00000   0.00000
  21 3   C  1S          0.00002   0.00001   0.70840   0.69587  -0.00014
  22        2S          0.00036   0.00007   0.03568   0.03496  -0.00024
  23        2PX         0.00017   0.00002   0.00012   0.00013  -0.00002
  24        2PY         0.00031   0.00005   0.00044   0.00044   0.00004
  25        2PZ         0.00000   0.00000   0.00000   0.00000   0.00000
  26        3S         -0.00244  -0.00052  -0.01334  -0.01269   0.00081
  27        3PX        -0.00099  -0.00022  -0.00088  -0.00084  -0.00024
  28        3PY        -0.00068  -0.00008   0.00169   0.00107  -0.00086
  29        3PZ         0.00000   0.00000   0.00000   0.00000   0.00000
  30        4XX         0.00009   0.00001  -0.00637  -0.00629  -0.00011
  31        4YY         0.00011   0.00002  -0.00623  -0.00615  -0.00005
  32        4ZZ         0.00009   0.00002  -0.00627  -0.00620  -0.00010
  33        4XY         0.00009   0.00002   0.00018   0.00014  -0.00001
  34        4XZ         0.00000   0.00000   0.00000   0.00000   0.00000
  35        4YZ         0.00000   0.00000   0.00000   0.00000   0.00000
  36 4   C  1S         -0.00003   0.00000   0.00186   0.00182   0.04869
  37        2S         -0.00010   0.00003  -0.00014  -0.00014   0.00221
  38        2PX         0.00000   0.00002   0.00010   0.00007   0.00004
  39        2PY         0.00009  -0.00001  -0.00010  -0.00007   0.00010
  40        2PZ         0.00000   0.00000   0.00000   0.00000   0.00000
  41        3S          0.00203   0.00007   0.00394   0.00374   0.00267
  42        3PX        -0.00072  -0.00022  -0.00169  -0.00160  -0.00019
  43        3PY        -0.00074   0.00021   0.00173   0.00135  -0.00168
  44        3PZ         0.00000   0.00000   0.00000   0.00000   0.00000
  45        4XX        -0.00003   0.00002  -0.00020  -0.00020  -0.00061
  46        4YY        -0.00007  -0.00001  -0.00017  -0.00016  -0.00068
  47        4ZZ        -0.00006   0.00001  -0.00013  -0.00015  -0.00056
  48        4XY         0.00002   0.00000   0.00002   0.00005  -0.00012
  49        4XZ         0.00000   0.00000   0.00000   0.00000   0.00000
  50        4YZ         0.00000   0.00000   0.00000   0.00000   0.00000
  51 5   H  1S          0.00000   0.00000   0.00002  -0.00002  -0.00005
  52        2S         -0.00002   0.00000   0.00214   0.00208  -0.00027
  53        3PX        -0.00003   0.00000  -0.00002  -0.00001   0.00002
  54        3PY        -0.00005   0.00000  -0.00009  -0.00006   0.00005
  55        3PZ         0.00007   0.00001   0.00007   0.00007   0.00000
  56 6   H  1S          0.00000   0.00000   0.00002  -0.00002  -0.00005
  57        2S         -0.00002   0.00000   0.00214   0.00208  -0.00027
  58        3PX        -0.00003   0.00000  -0.00002  -0.00001   0.00002
  59        3PY        -0.00005   0.00000  -0.00009  -0.00006   0.00005
  60        3PZ        -0.00007  -0.00001  -0.00007  -0.00007   0.00000
  61 7   C  1S          0.00004   0.00000   0.00002  -0.00010   0.70020
  62        2S          0.00019   0.00000   0.00011  -0.00027   0.03563
  63        2PX        -0.00001   0.00000   0.00006   0.00008  -0.00016
  64        2PY         0.00001  -0.00001  -0.00012  -0.00004   0.00005
  65        2PZ         0.00000   0.00000   0.00000   0.00000   0.00000
  66        3S         -0.00167   0.00009  -0.00195   0.00100  -0.01116
  67        3PX        -0.00026   0.00008  -0.00150  -0.00058   0.00038
  68        3PY        -0.00087  -0.00010   0.00165  -0.00021  -0.00140
  69        3PZ         0.00000   0.00000   0.00000   0.00000   0.00000
  70        4XX         0.00006   0.00000   0.00000  -0.00007  -0.00650
  71        4YY        -0.00002   0.00001   0.00001  -0.00002  -0.00656
  72        4ZZ         0.00005   0.00001   0.00003  -0.00009  -0.00622
  73        4XY        -0.00001   0.00000   0.00007  -0.00003   0.00012
  74        4XZ         0.00000   0.00000   0.00000   0.00000   0.00000
  75        4YZ         0.00000   0.00000   0.00000   0.00000   0.00000
  76 8   H  1S          0.00001   0.00002  -0.00009  -0.00010  -0.00011
  77        2S          0.00001   0.00002   0.00010   0.00022  -0.00003
  78        3PX         0.00001   0.00001  -0.00003  -0.00004  -0.00005
  79        3PY         0.00007   0.00000  -0.00001   0.00000   0.00000
  80        3PZ         0.00002   0.00000   0.00004   0.00005   0.00001
  81 9   H  1S          0.00001   0.00002  -0.00009  -0.00010  -0.00011
  82        2S          0.00001   0.00002   0.00010   0.00022  -0.00003
  83        3PX         0.00001   0.00001  -0.00003  -0.00004  -0.00005
  84        3PY         0.00007   0.00000  -0.00001   0.00000   0.00000
  85        3PZ        -0.00002   0.00000  -0.00004  -0.00005  -0.00001
  86 10  C  1S         -0.00001   0.00004  -0.00002  -0.00010   0.70056
  87        2S         -0.00005   0.00018  -0.00011  -0.00027   0.03565
  88        2PX         0.00000   0.00001   0.00006  -0.00008   0.00016
  89        2PY         0.00001  -0.00001  -0.00012   0.00005  -0.00005
  90        2PZ         0.00000   0.00000   0.00000   0.00000   0.00000
  91        3S          0.00052  -0.00159   0.00197   0.00096  -0.01117
  92        3PX        -0.00014   0.00023  -0.00149   0.00061  -0.00038
  93        3PY        -0.00013   0.00087   0.00166   0.00018   0.00140
  94        3PZ         0.00000   0.00000   0.00000   0.00000   0.00000
  95        4XX        -0.00002   0.00006   0.00000  -0.00007  -0.00651
  96        4YY         0.00001  -0.00002  -0.00001  -0.00002  -0.00657
  97        4ZZ        -0.00001   0.00005  -0.00003  -0.00009  -0.00623
  98        4XY         0.00000  -0.00001  -0.00007  -0.00003   0.00012
  99        4XZ         0.00000   0.00000   0.00000   0.00000   0.00000
 100        4YZ         0.00000   0.00000   0.00000   0.00000   0.00000
 101 11  H  1S          0.00006   0.00000   0.00003  -0.00008  -0.00009
 102        2S          0.00002   0.00001  -0.00028  -0.00038   0.00219
 103        3PX         0.00000   0.00000   0.00004   0.00003  -0.00002
 104        3PY         0.00002   0.00000  -0.00009  -0.00003  -0.00002
 105        3PZ         0.00001   0.00000   0.00003   0.00002   0.00011
 106 12  H  1S          0.00006   0.00000   0.00003  -0.00008  -0.00009
 107        2S          0.00002   0.00001  -0.00028  -0.00038   0.00219
 108        3PX         0.00000   0.00000   0.00004   0.00003  -0.00002
 109        3PY         0.00002   0.00000  -0.00009  -0.00003  -0.00002
 110        3PZ        -0.00001   0.00000  -0.00003  -0.00002  -0.00011
 111 13  C  1S          0.00001  -0.00003  -0.00182   0.00185   0.04871
 112        2S          0.00005  -0.00009   0.00014  -0.00014   0.00221
 113        2PX        -0.00001  -0.00001   0.00009  -0.00007  -0.00004
 114        2PY         0.00003  -0.00008  -0.00010   0.00007  -0.00010
 115        2PZ         0.00000   0.00000   0.00000   0.00000   0.00000
 116        3S         -0.00046   0.00198  -0.00388   0.00381   0.00267
 117        3PX         0.00003   0.00075  -0.00166   0.00163   0.00020
 118        3PY        -0.00039   0.00066   0.00170  -0.00138   0.00168
 119        3PZ         0.00000   0.00000   0.00000   0.00000   0.00000
 120        4XX         0.00002  -0.00003   0.00020  -0.00020  -0.00061
 121        4YY         0.00001  -0.00007   0.00017  -0.00017  -0.00068
 122        4ZZ         0.00002  -0.00005   0.00012  -0.00015  -0.00056
 123        4XY        -0.00001   0.00002  -0.00002   0.00005  -0.00012
 124        4XZ         0.00000   0.00000   0.00000   0.00000   0.00000
 125        4YZ         0.00000   0.00000   0.00000   0.00000   0.00000
 126 14  H  1S         -0.00001   0.00005  -0.00003  -0.00008  -0.00009
 127        2S          0.00000   0.00002   0.00028  -0.00039   0.00219
 128        3PX         0.00000   0.00000   0.00004  -0.00003   0.00002
 129        3PY         0.00001  -0.00002  -0.00009   0.00003   0.00002
 130        3PZ         0.00000  -0.00001   0.00003  -0.00002  -0.00011
 131 15  H  1S         -0.00001   0.00005  -0.00003  -0.00008  -0.00009
 132        2S          0.00000   0.00002   0.00028  -0.00039   0.00219
 133        3PX         0.00000   0.00000   0.00004  -0.00003   0.00002
 134        3PY         0.00001  -0.00002  -0.00009   0.00003   0.00002
 135        3PZ         0.00000   0.00001  -0.00003   0.00002   0.00011
 136 16  C  1S          0.00000   0.00002  -0.69589   0.70838  -0.00014
 137        2S         -0.00003   0.00037  -0.03506   0.03559  -0.00024
 138        2PX         0.00002  -0.00017   0.00012  -0.00013   0.00002
 139        2PY         0.00004  -0.00031   0.00043  -0.00045  -0.00004
 140        2PZ         0.00000   0.00000   0.00000   0.00000   0.00000
 141        3S          0.00013  -0.00249   0.01311  -0.01292   0.00081
 142        3PX        -0.00005   0.00102  -0.00086   0.00086   0.00024
 143        3PY        -0.00010   0.00067   0.00167  -0.00110   0.00085
 144        3PZ         0.00000   0.00000   0.00000   0.00000   0.00000
 145        4XX        -0.00001   0.00009   0.00626  -0.00640  -0.00011
 146        4YY        -0.00001   0.00011   0.00612  -0.00626  -0.00005
 147        4ZZ         0.00000   0.00009   0.00616  -0.00631  -0.00010
 148        4XY        -0.00001   0.00009  -0.00017   0.00014  -0.00001
 149        4XZ         0.00000   0.00000   0.00000   0.00000   0.00000
 150        4YZ         0.00000   0.00000   0.00000   0.00000   0.00000
 151 17  H  1S          0.00002   0.00001   0.00009  -0.00011  -0.00011
 152        2S          0.00001   0.00002  -0.00010   0.00022  -0.00003
 153        3PX        -0.00001  -0.00001  -0.00003   0.00004   0.00005
 154        3PY         0.00002  -0.00007  -0.00001   0.00000   0.00000
 155        3PZ         0.00000  -0.00002   0.00004  -0.00005  -0.00001
 156 18  H  1S          0.00002   0.00001   0.00009  -0.00011  -0.00011
 157        2S          0.00001   0.00002  -0.00010   0.00022  -0.00003
 158        3PX        -0.00001  -0.00001  -0.00003   0.00004   0.00005
 159        3PY         0.00002  -0.00007  -0.00001   0.00000   0.00000
 160        3PZ         0.00000   0.00002  -0.00004   0.00005   0.00001
 161 19  O  1S         -0.12978   0.98423   0.00008  -0.00010  -0.00004
 162        2S         -0.00340   0.02576   0.00010  -0.00018  -0.00018
 163        2PX        -0.00014   0.00107   0.00004  -0.00005   0.00000
 164        2PY         0.00000   0.00002   0.00007  -0.00008  -0.00003
 165        2PZ         0.00000   0.00000   0.00000   0.00000   0.00000
 166        3S         -0.00155   0.01201  -0.00133   0.00177   0.00086
 167        3PX         0.00001   0.00012   0.00023  -0.00018  -0.00003
 168        3PY        -0.00008   0.00057  -0.00001   0.00018   0.00040
 169        3PZ         0.00000   0.00000   0.00000   0.00000   0.00000
 170        4XX         0.00105  -0.00791   0.00020  -0.00025  -0.00014
 171        4YY         0.00105  -0.00794   0.00050  -0.00054  -0.00008
 172        4ZZ         0.00106  -0.00800  -0.00005  -0.00001  -0.00013
 173        4XY         0.00002  -0.00014   0.00021  -0.00020   0.00003
 174        4XZ         0.00000   0.00000   0.00000   0.00000   0.00000
 175        4YZ         0.00000   0.00000   0.00000   0.00000   0.00000
 176 20  H  1S          0.00000   0.00000  -0.00002  -0.00002  -0.00005
 177        2S          0.00000  -0.00002  -0.00210   0.00212  -0.00027
 178        3PX        -0.00001   0.00003  -0.00002   0.00001  -0.00002
 179        3PY        -0.00001   0.00005  -0.00008   0.00006  -0.00005
 180        3PZ         0.00001  -0.00007   0.00007  -0.00007   0.00000
 181 21  H  1S          0.00000   0.00000  -0.00002  -0.00002  -0.00005
 182        2S          0.00000  -0.00002  -0.00210   0.00212  -0.00027
 183        3PX        -0.00001   0.00003  -0.00002   0.00001  -0.00002
 184        3PY        -0.00001   0.00005  -0.00008   0.00006  -0.00005
 185        3PZ        -0.00001   0.00007  -0.00007   0.00007   0.00000
 186 22  H  1S         -0.00004   0.00023  -0.00008   0.00008   0.00004
 187        2S          0.00015  -0.00123  -0.00006   0.00014   0.00015
 188        3PX        -0.00002   0.00016  -0.00001   0.00000  -0.00003
 189        3PY         0.00003  -0.00024  -0.00011   0.00013   0.00003
 190        3PZ         0.00000   0.00000   0.00000   0.00000   0.00000
                           6         7         8         9        10
                           O         O         O         O         O
     Eigenvalues --   -10.16330 -10.16168 -10.16168  -1.02434  -1.02432
   1 1   O  1S         -0.00004   0.00004   0.00001  -0.14009  -0.14546
   2        2S         -0.00015   0.00014   0.00003   0.30490   0.31705
   3        2PX        -0.00002  -0.00001  -0.00002  -0.07311  -0.07597
   4        2PY         0.00003   0.00002   0.00003  -0.02550  -0.02648
   5        2PZ         0.00000   0.00000   0.00000   0.00000   0.00000
   6        3S          0.00072  -0.00112  -0.00048   0.29912   0.30850
   7        3PX         0.00015   0.00006   0.00013  -0.02695  -0.02770
   8        3PY        -0.00040   0.00028   0.00002  -0.02381  -0.02399
   9        3PZ         0.00000   0.00000   0.00000   0.00000   0.00000
  10        4XX        -0.00014   0.00017   0.00004  -0.00054  -0.00039
  11        4YY        -0.00006   0.00016   0.00007   0.00364   0.00385
  12        4ZZ        -0.00011   0.00005  -0.00001  -0.00746  -0.00760
  13        4XY         0.00001  -0.00007  -0.00003   0.00364   0.00375
  14        4XZ         0.00000   0.00000   0.00000   0.00000   0.00000
  15        4YZ         0.00000   0.00000   0.00000   0.00000   0.00000
  16 2   H  1S          0.00006  -0.00001   0.00004   0.09817   0.10206
  17        2S          0.00002   0.00020   0.00013   0.00962   0.01018
  18        3PX         0.00004  -0.00006  -0.00002   0.01100   0.01141
  19        3PY         0.00000  -0.00001  -0.00002  -0.01201  -0.01252
  20        3PZ         0.00000   0.00000   0.00000   0.00000   0.00000
  21 3   C  1S         -0.00014  -0.00255  -0.00130  -0.05575  -0.05799
  22        2S          0.00009  -0.00044  -0.00021   0.10672   0.11010
  23        2PX        -0.00005  -0.00006  -0.00005   0.02750   0.02865
  24        2PY         0.00001   0.00004   0.00001   0.07148   0.07418
  25        2PZ         0.00000   0.00000   0.00000   0.00000   0.00000
  26        3S         -0.00143   0.00562   0.00281   0.01652   0.02469
  27        3PX        -0.00073   0.00187   0.00112  -0.01338  -0.01093
  28        3PY         0.00047  -0.00151  -0.00066  -0.00216  -0.00313
  29        3PZ         0.00000   0.00000   0.00000   0.00000   0.00000
  30        4XX        -0.00001  -0.00029  -0.00013  -0.00543  -0.00562
  31        4YY        -0.00002  -0.00014  -0.00009   0.01145   0.01199
  32        4ZZ         0.00001  -0.00010  -0.00006  -0.00866  -0.00913
  33        4XY         0.00005   0.00011   0.00005   0.00682   0.00701
  34        4XZ         0.00000   0.00000   0.00000   0.00000   0.00000
  35        4YZ         0.00000   0.00000   0.00000   0.00000   0.00000
  36 4   C  1S          0.05794   0.88093   0.45205  -0.01223  -0.01252
  37        2S          0.00269   0.04539   0.02304   0.01984   0.02033
  38        2PX         0.00011   0.00005  -0.00001  -0.00825  -0.00887
  39        2PY        -0.00001   0.00000   0.00002   0.01342   0.01470
  40        2PZ         0.00000   0.00000   0.00000   0.00000   0.00000
  41        3S          0.00431  -0.02144  -0.00900   0.03379   0.02948
  42        3PX        -0.00178   0.00190   0.00101  -0.01341  -0.00836
  43        3PY        -0.00165   0.00154  -0.00054   0.00429   0.00118
  44        3PZ         0.00000   0.00000   0.00000   0.00000   0.00000
  45        4XX        -0.00070  -0.00782  -0.00411   0.00058   0.00047
  46        4YY        -0.00073  -0.00810  -0.00414   0.00218   0.00213
  47        4ZZ        -0.00062  -0.00765  -0.00400  -0.00143  -0.00146
  48        4XY        -0.00009   0.00005   0.00004  -0.00245  -0.00252
  49        4XZ         0.00000   0.00000   0.00000   0.00000   0.00000
  50        4YZ         0.00000   0.00000   0.00000   0.00000   0.00000
  51 5   H  1S          0.00007  -0.00015  -0.00007   0.02088   0.02154
  52        2S         -0.00021  -0.00003   0.00008   0.00209   0.00200
  53        3PX         0.00001   0.00005   0.00002   0.00236   0.00241
  54        3PY         0.00001  -0.00004  -0.00003   0.00106   0.00108
  55        3PZ         0.00002  -0.00003  -0.00003  -0.00253  -0.00266
  56 6   H  1S          0.00007  -0.00015  -0.00007   0.02088   0.02154
  57        2S         -0.00021  -0.00003   0.00008   0.00209   0.00200
  58        3PX         0.00001   0.00005   0.00002   0.00236   0.00241
  59        3PY         0.00001  -0.00004  -0.00003   0.00106   0.00108
  60        3PZ        -0.00002   0.00003   0.00003   0.00253   0.00266
  61 7   C  1S          0.70008  -0.07035  -0.02872  -0.00254  -0.00164
  62        2S          0.03626  -0.00402  -0.00163   0.00627   0.00493
  63        2PX         0.00003  -0.00010  -0.00002   0.00053  -0.00011
  64        2PY        -0.00003  -0.00015   0.00003   0.00288   0.00354
  65        2PZ         0.00000   0.00000   0.00000   0.00000   0.00000
  66        3S         -0.02084   0.00878   0.00204  -0.00824  -0.00627
  67        3PX        -0.00325   0.00227  -0.00031  -0.00124   0.00224
  68        3PY         0.00126   0.00268   0.00094  -0.01183  -0.00784
  69        3PZ         0.00000   0.00000   0.00000   0.00000   0.00000
  70        4XX        -0.00600   0.00039   0.00015   0.00008   0.00032
  71        4YY        -0.00630   0.00039   0.00014   0.00017   0.00004
  72        4ZZ        -0.00596   0.00044   0.00017   0.00003   0.00009
  73        4XY        -0.00002  -0.00013  -0.00005   0.00004   0.00018
  74        4XZ         0.00000   0.00000   0.00000   0.00000   0.00000
  75        4YZ         0.00000   0.00000   0.00000   0.00000   0.00000
  76 8   H  1S         -0.00012   0.00007  -0.00006   0.00499   0.00494
  77        2S          0.00055   0.00260   0.00130   0.00300   0.00239
  78        3PX         0.00000   0.00008   0.00002  -0.00035  -0.00048
  79        3PY        -0.00007  -0.00001   0.00002   0.00034   0.00049
  80        3PZ         0.00005  -0.00021  -0.00010   0.00078   0.00073
  81 9   H  1S         -0.00012   0.00007  -0.00006   0.00499   0.00494
  82        2S          0.00055   0.00260   0.00130   0.00300   0.00239
  83        3PX         0.00000   0.00008   0.00002  -0.00035  -0.00048
  84        3PY        -0.00007  -0.00001   0.00002   0.00034   0.00049
  85        3PZ        -0.00005   0.00021   0.00010  -0.00078  -0.00073
  86 10  C  1S         -0.69972   0.04034  -0.06438  -0.00260   0.00154
  87        2S         -0.03624   0.00231  -0.00367   0.00646  -0.00469
  88        2PX         0.00003  -0.00007   0.00008  -0.00052  -0.00013
  89        2PY        -0.00003  -0.00014   0.00006  -0.00301   0.00343
  90        2PZ         0.00000   0.00000   0.00000   0.00000   0.00000
  91        3S          0.02083  -0.00594   0.00679  -0.00847   0.00595
  92        3PX        -0.00325   0.00203  -0.00107   0.00116   0.00228
  93        3PY         0.00126   0.00163  -0.00233   0.01211  -0.00738
  94        3PZ         0.00000   0.00000   0.00000   0.00000   0.00000
  95        4XX         0.00600  -0.00023   0.00035   0.00009  -0.00032
  96        4YY         0.00630  -0.00023   0.00034   0.00017  -0.00003
  97        4ZZ         0.00596  -0.00026   0.00040   0.00004  -0.00009
  98        4XY         0.00002   0.00008  -0.00012   0.00005  -0.00018
  99        4XZ         0.00000   0.00000   0.00000   0.00000   0.00000
 100        4YZ         0.00000   0.00000   0.00000   0.00000   0.00000
 101 11  H  1S          0.00012  -0.00015  -0.00005   0.00168   0.00143
 102        2S          0.00210   0.00010  -0.00038  -0.00089   0.00024
 103        3PX        -0.00008   0.00003   0.00002   0.00000  -0.00008
 104        3PY        -0.00001   0.00000   0.00007   0.00032   0.00021
 105        3PZ         0.00020  -0.00009   0.00000   0.00000  -0.00005
 106 12  H  1S          0.00012  -0.00015  -0.00005   0.00168   0.00143
 107        2S          0.00210   0.00010  -0.00038  -0.00089   0.00024
 108        3PX        -0.00008   0.00003   0.00002   0.00000  -0.00008
 109        3PY        -0.00001   0.00000   0.00007   0.00032   0.00021
 110        3PZ        -0.00020   0.00009   0.00000   0.00000   0.00005
 111 13  C  1S         -0.05790  -0.45125   0.88134  -0.01270   0.01205
 112        2S         -0.00269  -0.02340   0.04520   0.02059  -0.01956
 113        2PX         0.00011   0.00005  -0.00002   0.00858  -0.00855
 114        2PY        -0.00001  -0.00002  -0.00002  -0.01397   0.01418
 115        2PZ         0.00000   0.00000   0.00000   0.00000   0.00000
 116        3S         -0.00431   0.01215  -0.01983   0.03488  -0.02818
 117        3PX        -0.00178   0.00096  -0.00193   0.01372  -0.00785
 118        3PY        -0.00165   0.00157  -0.00046  -0.00433   0.00101
 119        3PZ         0.00000   0.00000   0.00000   0.00000   0.00000
 120        4XX         0.00070   0.00395  -0.00791   0.00059  -0.00044
 121        4YY         0.00073   0.00416  -0.00809   0.00226  -0.00204
 122        4ZZ         0.00062   0.00388  -0.00772  -0.00149   0.00141
 123        4XY         0.00009  -0.00002   0.00006  -0.00254   0.00243
 124        4XZ         0.00000   0.00000   0.00000   0.00000   0.00000
 125        4YZ         0.00000   0.00000   0.00000   0.00000   0.00000
 126 14  H  1S         -0.00012   0.00009  -0.00013   0.00174  -0.00136
 127        2S         -0.00209  -0.00030  -0.00025  -0.00088  -0.00027
 128        3PX        -0.00008   0.00001  -0.00004   0.00001  -0.00008
 129        3PY        -0.00001  -0.00003  -0.00006  -0.00033   0.00020
 130        3PZ         0.00020  -0.00007   0.00006   0.00001  -0.00005
 131 15  H  1S         -0.00012   0.00009  -0.00013   0.00174  -0.00136
 132        2S         -0.00209  -0.00030  -0.00025  -0.00088  -0.00027
 133        3PX        -0.00008   0.00001  -0.00004   0.00001  -0.00008
 134        3PY        -0.00001  -0.00003  -0.00006  -0.00033   0.00020
 135        3PZ        -0.00020   0.00007  -0.00006  -0.00001   0.00005
 136 16  C  1S          0.00014   0.00131  -0.00255  -0.05790   0.05584
 137        2S         -0.00009   0.00024  -0.00042   0.11081  -0.10598
 138        2PX        -0.00005  -0.00003   0.00007  -0.02856   0.02759
 139        2PY         0.00001   0.00003  -0.00003  -0.07423   0.07142
 140        2PZ         0.00000   0.00000   0.00000   0.00000   0.00000
 141        3S          0.00143  -0.00293   0.00557   0.01744  -0.02405
 142        3PX        -0.00073   0.00086  -0.00200   0.01378  -0.01042
 143        3PY         0.00047  -0.00084   0.00142   0.00228  -0.00305
 144        3PZ         0.00000   0.00000   0.00000   0.00000   0.00000
 145        4XX         0.00001   0.00016  -0.00027  -0.00564   0.00541
 146        4YY         0.00002   0.00007  -0.00015   0.01190  -0.01154
 147        4ZZ        -0.00001   0.00004  -0.00011  -0.00900   0.00879
 148        4XY        -0.00005  -0.00007   0.00011   0.00708  -0.00674
 149        4XZ         0.00000   0.00000   0.00000   0.00000   0.00000
 150        4YZ         0.00000   0.00000   0.00000   0.00000   0.00000
 151 17  H  1S          0.00012  -0.00009   0.00000   0.00517  -0.00475
 152        2S         -0.00055  -0.00135   0.00257   0.00308  -0.00227
 153        3PX         0.00000   0.00005  -0.00006   0.00037  -0.00046
 154        3PY        -0.00007  -0.00002  -0.00001  -0.00035   0.00048
 155        3PZ         0.00005  -0.00011   0.00020  -0.00080   0.00070
 156 18  H  1S          0.00012  -0.00009   0.00000   0.00517  -0.00475
 157        2S         -0.00055  -0.00135   0.00257   0.00308  -0.00227
 158        3PX         0.00000   0.00005  -0.00006   0.00037  -0.00046
 159        3PY        -0.00007  -0.00002  -0.00001  -0.00035   0.00048
[...]
     5  H   -0.000843   0.006992  -0.008851  -0.000066   0.005265  -0.000703
     6  H   -0.000843  -0.008851   0.006992  -0.000066  -0.000703   0.005265
     7  C    4.909114  -0.033878  -0.033878   0.375561   0.383231   0.383231
     8  H   -0.033878   0.636060  -0.041185  -0.004264   0.005917  -0.005911
     9  H   -0.033878  -0.041185   0.636060  -0.004264  -0.005911   0.005917
    10  C    0.375561  -0.004264  -0.004264   4.909114  -0.038934  -0.038934
    11  H    0.383231   0.005917  -0.005911  -0.038934   0.637856  -0.040766
    12  H    0.383231  -0.005911   0.005917  -0.038934  -0.040766   0.637856
    13  C   -0.032184   0.000070   0.000070   0.344682  -0.003623  -0.003623
    14  H   -0.038934   0.004671  -0.000469   0.383231   0.005964  -0.005917
    15  H   -0.038934  -0.000469   0.004671   0.383231  -0.005917   0.005964
    16  C    0.003159   0.000001   0.000001  -0.031510   0.000038   0.000038
    17  H   -0.004264   0.000004   0.000006  -0.033878   0.004671  -0.000469
    18  H   -0.004264   0.000006   0.000004  -0.033878  -0.000469   0.004671
    19  O   -0.000036   0.000000   0.000000   0.002164   0.000000   0.000000
    20  H   -0.000066  -0.000002   0.000001  -0.000843   0.000003   0.000008
    21  H   -0.000066   0.000001  -0.000002  -0.000843   0.000008   0.000003
    22  H    0.000002   0.000000   0.000000  -0.000265   0.000000   0.000000
             13         14         15         16         17         18
     1  O    0.000000   0.000000   0.000000   0.000000   0.000000   0.000000
     2  H    0.000000   0.000000   0.000000   0.000000   0.000000   0.000000
     3  C   -0.000109   0.000038   0.000038   0.000001   0.000001   0.000001
     4  C    0.002998  -0.003623  -0.003623  -0.000109   0.000070   0.000070
     5  H    0.000005   0.000003   0.000008   0.000000  -0.000002   0.000001
     6  H    0.000005   0.000008   0.000003   0.000000   0.000001  -0.000002
     7  C   -0.032184  -0.038934  -0.038934   0.003159  -0.004264  -0.004264
     8  H    0.000070   0.004671  -0.000469   0.000001   0.000004   0.000006
     9  H    0.000070  -0.000469   0.004671   0.000001   0.000006   0.000004
    10  C    0.344682   0.383231   0.383231  -0.031510  -0.033878  -0.033878
    11  H   -0.003623   0.005964  -0.005917   0.000038   0.004671  -0.000469
    12  H   -0.003623  -0.005917   0.005964   0.000038  -0.000469   0.004671
    13  C    4.966827  -0.038966  -0.038966   0.367959   0.375179   0.375179
    14  H   -0.038966   0.637856  -0.040766  -0.004207   0.005917  -0.005911
    15  H   -0.038966  -0.040766   0.637856  -0.004207  -0.005911   0.005917
    16  C    0.367959  -0.004207  -0.004207   4.726142  -0.037193  -0.037193
    17  H    0.375179   0.005917  -0.005911  -0.037193   0.636060  -0.041185
    18  H    0.375179  -0.005911   0.005917  -0.037193  -0.041185   0.636060
    19  O   -0.048234  -0.000009  -0.000009   0.233729   0.003793   0.003793
    20  H   -0.042527   0.005265  -0.000703   0.374253   0.006992  -0.008851
    21  H   -0.042527  -0.000703   0.005265   0.374253  -0.008851   0.006992
    22  H    0.005833   0.000003   0.000003  -0.022135  -0.000094  -0.000094
             19         20         21         22
     1  O    0.000000   0.000000   0.000000   0.000000
     2  H    0.000000   0.000000   0.000000   0.000000
     3  C    0.000000   0.000000   0.000000   0.000000
     4  C    0.000000   0.000005   0.000005   0.000000
     5  H    0.000000   0.000000   0.000000   0.000000
     6  H    0.000000   0.000000   0.000000   0.000000
     7  C   -0.000036  -0.000066  -0.000066   0.000002
     8  H    0.000000  -0.000002   0.000001   0.000000
     9  H    0.000000   0.000001  -0.000002   0.000000
    10  C    0.002164  -0.000843  -0.000843  -0.000265
    11  H    0.000000   0.000003   0.000008   0.000000
    12  H    0.000000   0.000008   0.000003   0.000000
    13  C   -0.048234  -0.042527  -0.042527   0.005833
    14  H   -0.000009   0.005265  -0.000703   0.000003
    15  H   -0.000009  -0.000703   0.005265   0.000003
    16  C    0.233729   0.374253   0.374253  -0.022135
    17  H    0.003793   0.006992  -0.008851  -0.000094
    18  H    0.003793  -0.008851   0.006992  -0.000094
    19  O    8.175577  -0.037885  -0.037885   0.285436
    20  H   -0.037885   0.678918  -0.058375  -0.003926
    21  H   -0.037885  -0.058375   0.678918  -0.003926
    22  H    0.285436  -0.003926  -0.003926   0.413355
 Mulliken atomic charges:
              1
     1  O   -0.580433
     2  H    0.325808
     3  C    0.056981
     4  C   -0.188050
     5  H    0.087734
     6  H    0.087734
     7  C   -0.181177
     8  H    0.099153
     9  H    0.099153
    10  C   -0.181177
    11  H    0.096549
    12  H    0.096549
    13  C   -0.188050
    14  H    0.096549
    15  H    0.096549
    16  C    0.056981
    17  H    0.099153
    18  H    0.099153
    19  O   -0.580433
    20  H    0.087734
    21  H    0.087734
    22  H    0.325808
 Sum of Mulliken atomic charges =   0.00000
 Mulliken charges with hydrogens summed into heavy atoms:
              1
     1  O   -0.254625
     3  C    0.232448
     4  C    0.010256
     7  C    0.011920
    10  C    0.011920
    13  C    0.010256
    16  C    0.232448
    19  O   -0.254625
 Sum of Mulliken charges with hydrogens summed into heavy atoms =   0.00000
 Electronic spatial extent (au):  <R**2>=           2293.3361
 Charge=              0.0000 electrons
 Dipole moment (field-independent basis, Debye):
    X=              0.0000    Y=              0.0000    Z=              0.0000  Tot=              0.0000
 Quadrupole moment (field-independent basis, Debye-Ang):
   XX=            -48.2469   YY=            -48.0627   ZZ=            -51.0105
   XY=            -16.8590   XZ=              0.0000   YZ=              0.0000
 Traceless Quadrupole moment (field-independent basis, Debye-Ang):
   XX=              0.8598   YY=              1.0440   ZZ=             -1.9038
   XY=            -16.8590   XZ=              0.0000   YZ=              0.0000
 Octapole moment (field-independent basis, Debye-Ang**2):
  XXX=              0.0000  YYY=              0.0000  ZZZ=              0.0000  XYY=              0.0000
  XXY=              0.0000  XXZ=              0.0000  XZZ=              0.0000  YZZ=              0.0000
  YYZ=              0.0000  XYZ=              0.0000
 Hexadecapole moment (field-independent basis, Debye-Ang**3):
 XXXX=           -197.7249 YYYY=          -2001.8033 ZZZZ=            -91.2125 XXXY=            131.9879
 XXXZ=              0.0000 YYYX=           -248.3169 YYYZ=              0.0000 ZZZX=              0.0000
 ZZZY=              0.0000 XXYY=           -382.8423 XXZZ=            -44.8119 YYZZ=           -442.9862
 XXYZ=              0.0000 YYXZ=              0.0000 ZZXY=             46.8691
 N-N= 3.745117616946D+02 E-N=-1.652257465648D+03  KE= 3.839342560571D+02
 Symmetry AG   KE= 1.829052413206D+02
 Symmetry BG   KE= 1.067133716832D+01
 Symmetry AU   KE= 1.048179655751D+01
 Symmetry BU   KE= 1.798758810107D+02
 Orbital energies and kinetic energies (alpha):
                                 1                 2
   1         (BU)--O         -19.140172         29.029317
   2         (AG)--O         -19.140172         29.029277
   3         (BU)--O         -10.224941         15.888014
   4         (AG)--O         -10.224940         15.887742
   5         (AG)--O         -10.179255         15.882780
   6         (BU)--O         -10.179046         15.888745
   7         (BU)--O         -10.176701         15.885822
   8         (AG)--O         -10.176699         15.884841
   9         (AG)--O          -1.009725          2.512919
  10         (BU)--O          -1.009706          2.513120
  11         (AG)--O          -0.802548          1.357440
  12         (BU)--O          -0.759964          1.468553
  13         (AG)--O          -0.695521          1.581197
  14         (BU)--O          -0.624689          1.642983
  15         (AG)--O          -0.579512          1.405466
  16         (BU)--O          -0.577052          1.152092
  17         (AG)--O          -0.502039          1.716963
  18         (BU)--O          -0.499307          1.597782
  19         (AU)--O          -0.484207          0.866220
  20         (BG)--O          -0.464210          0.981920
  21         (AU)--O          -0.424664          1.103450
  22         (AG)--O          -0.418140          1.372540
  23         (BU)--O          -0.404753          1.637679
  24         (BG)--O          -0.375843          1.204938
  25         (BU)--O          -0.375008          1.481554
  26         (AG)--O          -0.349056          1.868393
  27         (AU)--O          -0.335822          1.178405
  28         (AG)--O          -0.329237          1.264184
  29         (BU)--O          -0.326263          1.752280
  30         (BG)--O          -0.320636          1.041120
  31         (AG)--O          -0.310067          1.688880
  32         (AU)--O          -0.265399          2.092822
  33         (BG)--O          -0.264845          2.107689
  34         (BU)--V           0.086504          1.209428
  35         (AG)--V           0.087797          1.192352
  36         (AG)--V           0.092403          0.906707
  37         (BU)--V           0.113533          1.187720
  38         (AU)--V           0.119803          0.840351
  39         (BU)--V           0.133845          0.941280
  40         (BG)--V           0.157262          0.938353
  41         (AG)--V           0.160630          1.240293
  42         (AG)--V           0.179520          1.104738
  43         (BU)--V           0.187760          1.296202
  44         (AU)--V           0.199915          1.065875
  45         (BG)--V           0.202157          0.988850
  46         (BU)--V           0.202502          1.834818
  47         (AU)--V           0.205768          0.983487
  48         (AG)--V           0.208597          1.848137
  49         (BG)--V           0.213547          1.059375
  50         (BU)--V           0.236938          1.505800
  51         (AG)--V           0.241534          1.194259
  52         (BU)--V           0.259503          1.782537
  53         (AG)--V           0.314626          2.171929
  54         (BU)--V           0.326667          2.169498
  55         (AG)--V           0.478679          1.755314
  56         (BU)--V           0.525782          1.776340
  57         (AG)--V           0.529073          2.147308
  58         (BU)--V           0.547084          2.176584
  59         (AU)--V           0.558356          1.615052
  60         (BG)--V           0.561686          1.642927
  61         (AU)--V           0.598592          1.798354
  62         (AG)--V           0.599517          2.140531
  63         (BU)--V           0.612037          2.328562
  64         (BG)--V           0.670005          2.106699
  65         (AG)--V           0.670160          2.745697
  66         (BU)--V           0.678300          2.562769
  67         (AG)--V           0.695447          2.376804
  68         (BU)--V           0.736981          2.439186
  69         (BU)--V           0.753464          2.439109
  70         (AU)--V           0.760255          2.507857
  71         (AG)--V           0.774540          2.546781
  72         (BG)--V           0.788794          2.628740
  73         (BU)--V           0.810739          2.793576
  74         (AU)--V           0.819362          2.464366
  75         (BG)--V           0.838651          2.494179
  76         (AG)--V           0.849988          2.466763
  77         (AU)--V           0.874597          2.539228
  78         (AG)--V           0.892623          2.557375
  79         (BU)--V           0.895353          2.625383
  80         (BG)--V           0.914742          2.437200
  81         (BU)--V           0.922217          2.542649
  82         (AG)--V           0.925689          2.379319
  83         (AU)--V           0.941454          2.479478
  84         (AG)--V           0.943634          2.333060
  85         (BU)--V           0.953836          2.537735
  86         (AG)--V           0.962098          2.484444
  87         (BG)--V           0.980538          3.033332
  88         (BU)--V           0.982024          2.894975
  89         (AG)--V           0.990155          2.749017
  90         (AU)--V           1.042522          2.788292
  91         (BG)--V           1.181387          2.306462
  92         (BU)--V           1.185299          2.629765
  93         (AG)--V           1.195575          2.635840
  94         (BU)--V           1.239405          2.562201
  95         (AU)--V           1.294869          2.350691
  96         (AG)--V           1.333473          2.558525
  97         (BU)--V           1.339399          2.481205
  98         (BU)--V           1.397805          2.468095
  99         (AG)--V           1.411408          2.521238
 100         (AG)--V           1.458578          2.422703
 101         (BU)--V           1.477838          2.567326
 102         (BG)--V           1.545838          2.548485
 103         (BU)--V           1.573905          2.626649
 104         (AU)--V           1.588256          2.570926
 105         (AG)--V           1.589681          2.732841
 106         (BG)--V           1.599171          2.575836
 107         (AU)--V           1.652567          2.642421
 108         (BG)--V           1.686143          2.640933
 109         (BG)--V           1.705723          2.677145
 110         (AU)--V           1.707413          2.666963
 111         (AG)--V           1.742454          2.879492
 112         (BU)--V           1.771144          2.942878
 113         (AG)--V           1.857759          3.111467
 114         (AG)--V           1.871663          3.317160
 115         (BU)--V           1.877059          3.283579
 116         (BU)--V           1.897977          3.173216
 117         (AG)--V           1.930786          3.240270
 118         (AU)--V           1.942841          2.990670
 119         (BG)--V           1.943454          2.989254
 120         (AG)--V           1.946884          3.115630
 121         (BU)--V           1.967102          3.122257
 122         (BU)--V           1.991550          3.412843
 123         (AG)--V           2.021797          3.652013
 124         (BG)--V           2.067886          3.176455
 125         (AU)--V           2.074041          3.208527
 126         (AU)--V           2.087593          3.158290
 127         (BG)--V           2.106876          3.240556
 128         (BU)--V           2.146558          3.454626
 129         (BG)--V           2.147316          3.322057
 130         (AU)--V           2.150304          3.299426
 131         (AU)--V           2.229087          3.037616
 132         (BG)--V           2.250787          3.056976
 133         (AG)--V           2.268681          3.492394
 134         (AU)--V           2.283605          3.100089
 135         (BG)--V           2.312719          3.151370
 136         (AU)--V           2.318735          3.154502
 137         (BU)--V           2.336726          3.549347
 138         (AG)--V           2.338698          3.551780
 139         (BU)--V           2.387890          3.635750
 140         (AG)--V           2.389491          3.666579
 141         (BG)--V           2.421145          3.310184
 142         (AU)--V           2.442013          3.453641
 143         (BU)--V           2.451808          3.809546
 144         (AG)--V           2.497036          3.596582
 145         (BG)--V           2.552916          3.651128
 146         (BU)--V           2.581828          3.606940
 147         (AG)--V           2.617972          3.667114
 148         (BU)--V           2.655131          3.916023
 149         (AU)--V           2.664876          3.610755
 150         (BG)--V           2.670486          3.606111
 151         (AG)--V           2.675740          3.863726
 152         (BU)--V           2.686841          3.770069
 153         (AU)--V           2.689650          3.815543
 154         (AG)--V           2.727741          3.962275
 155         (BU)--V           2.740198          3.874155
 156         (BU)--V           2.776754          4.031365
 157         (BG)--V           2.794799          3.942283
 158         (AG)--V           2.825421          3.775287
 159         (BU)--V           2.865592          3.963420
 160         (AU)--V           2.865598          4.001116
 161         (AG)--V           2.880071          4.307828
 162         (BU)--V           2.897329          3.996205
 163         (BG)--V           2.899403          4.016282
 164         (AG)--V           2.916268          3.948127
 165         (AG)--V           2.927992          4.050099
 166         (BU)--V           2.957414          4.166852
 167         (AG)--V           3.003165          4.269532
 168         (BU)--V           3.012727          4.318612
 169         (AG)--V           3.225602          4.839131
 170         (BU)--V           3.254974          4.824693
 171         (AG)--V           3.270106          4.905848
 172         (BG)--V           3.296489          4.856904
 173         (BU)--V           3.298785          5.046433
 174         (AG)--V           3.344966          5.251786
 175         (AU)--V           3.364972          4.921104
 176         (BU)--V           3.410693          5.561907
 177         (BG)--V           3.457649          5.012228
 178         (AG)--V           3.471984          6.074220
 179         (BU)--V           3.480015          5.832972
 180         (AU)--V           3.544870          5.121480
 181         (BG)--V           3.582619          5.183601
 182         (AU)--V           3.584364          5.214652
 183         (AG)--V           3.954351          9.519986
 184         (BU)--V           3.957488          9.428409
 185         (AG)--V           4.251284         10.064960
 186         (BU)--V           4.348216         10.146094
 187         (AG)--V           4.448849         10.185387
 188         (BU)--V           4.542543         10.186033
 189         (AG)--V           4.644078         10.280685
 190         (BU)--V           4.769599         10.537090
 Total kinetic energy from orbitals= 3.839342560571D+02
 No NMR shielding tensors so no spin-rotation constants.
 Leave Link  601 at Mon Mar 14 13:51:46 2022, MaxMem=  536870912 cpu:       2.0
 (Enter /opt/gridunesp/dist/gaussian/g09/l9999.exe)

 Test job not archived.
 1\1\GINC-NODE025\FOpt\RB3LYP\6-31G(d,p)\C6H14O2\RHEINHEIMER\14-Mar-202
 2\0\\#P B3LYP/6-31G(d,p) # Opt=tight SCRF=(Solvent=Water) # Gfinput IO
 P(6/7=3) Pop=full Density Test # Units(Ang,Deg)\\peg-5.xyz\\0,1\O,-0.1
 154612421,0.,0.0758166395\H,-0.1199191256,0.,1.0422061233\C,1.24874059
 6,0.,-0.3487434018\C,1.2764977044,0.,-1.8713799901\H,1.7789803325,0.88
 60299799,0.0345892971\H,1.7789803325,-0.8860299799,0.0345892971\C,2.69
 85589655,0.,-2.4433547619\H,0.728241993,-0.8804539751,-2.231221491\H,0
 .728241993,0.8804539751,-2.231221491\C,2.7320446706,0.,-3.9766234199\H
 ,3.2429958046,0.8784905384,-2.0699208436\H,3.2429958046,-0.8784905384,
 -2.0699208436\C,4.1541059317,0.,-4.5485981918\H,2.1876078315,-0.878490
 5384,-4.3500573382\H,2.1876078315,0.8784905384,-4.3500573382\C,4.18186
 30401,0.,-6.07123478\H,4.7023616431,0.8804539751,-4.1887566908\H,4.702
 3616431,-0.8804539751,-4.1887566908\O,5.5460648782,0.,-6.4957948213\H,
 3.6516233036,-0.8860299799,-6.4545674789\H,3.6516233036,0.8860299799,-
 6.4545674789\H,5.5505227617,0.,-7.4621843052\\Version=EM64L-G09RevA.02
 \State=1-AG\HF=-387.5283575\RMSD=7.854e-09\RMSF=6.702e-06\Dipole=0.,0.
 ,0.\Quadrupole=-11.7921308,-1.4154374,13.2075682,0.,0.9303248,0.\PG=C0
 2H [SGH(C6H2O2),X(H12)]\\@


 MOST BUREAUCRACIES FUNCTION LIKE A SEPTIC TANK.
 THE LARGE CHUNKS RISE TO THE TOP.
 Job cpu time:  0 days  0 hours 21 minutes 32.8 seconds.
 File lengths (MBytes):  RWF=    178 Int=      0 D2E=      0 Chk=      7 Scr=      2
 Normal termination of Gaussian 09 at Mon Mar 14 13:51:46 2022.
