 Entering Gaussian System, Link 0=g16
 Input=w-3-tio2-p_anion_scf_g09.com
 Output=w-3-tio2-p_anion_scf_g09.log
 Initial command:
 /home/rheinheimer/Apps//g16/l1.exe "/home/rheinheimer/Apps/scrgauss/Gau-1685647.inp" -scrdir="/home/rheinheimer/Apps/scrgauss/"
 Entering Link 1 = /home/rheinheimer/Apps//g16/l1.exe PID=   1685649.
  
 Copyright (c) 1988,1990,1992,1993,1995,1998,2003,2009,2016,
            Gaussian, Inc.  All Rights Reserved.
  
 This is part of the Gaussian(R) 16 program.  It is based on
 the Gaussian(R) 09 system (copyright 2009, Gaussian, Inc.),
 the Gaussian(R) 03 system (copyright 2003, Gaussian, Inc.),
 the Gaussian(R) 98 system (copyright 1998, Gaussian, Inc.),
 the Gaussian(R) 94 system (copyright 1995, Gaussian, Inc.),
 the Gaussian 92(TM) system (copyright 1992, Gaussian, Inc.),
 the Gaussian 90(TM) system (copyright 1990, Gaussian, Inc.),
 the Gaussian 88(TM) system (copyright 1988, Gaussian, Inc.),
 the Gaussian 86(TM) system (copyright 1986, Carnegie Mellon
 University), and the Gaussian 82(TM) system (copyright 1983,
 Carnegie Mellon University). Gaussian is a federally registered
 trademark of Gaussian, Inc.
  
 This software contains proprietary and confidential information,
 including trade secrets, belonging to Gaussian, Inc.
  
 This software is provided under written license and may be
 used, copied, transmitted, or stored only in accord with that
 written license.
  
 The following legend is applicable only to US Government
 contracts under FAR:
  
                    RESTRICTED RIGHTS LEGEND
  
 Use, reproduction and disclosure by the US Government is
 subject to restrictions as set forth in subparagraphs (a)
 and (c) of the Commercial Computer Software - Restricted
 Rights clause in FAR 52.227-19.
  
 Gaussian, Inc.
 340 Quinnipiac St., Bldg. 40, Wallingford CT 06492
  
  
 ---------------------------------------------------------------
 Warning -- This program may not be used in any manner that
 competes with the business of Gaussian, Inc. or will provide
 assistance to any competitor of Gaussian, Inc.  The licensee
 of this program is prohibited from giving any competitor of
 Gaussian, Inc. access to this program.  By using this program,
 the user acknowledges that Gaussian, Inc. is engaged in the
 business of creating and licensing software in the field of
 computational chemistry and represents and warrants to the
 licensee that it is not a competitor of Gaussian, Inc. and that
 it will not use this program in any manner prohibited above.
 ---------------------------------------------------------------
  

 Cite this work as:
 Gaussian 16, Revision A.03,
 M. J. Frisch, G. W. Trucks, H. B. Schlegel, G. E. Scuseria, 
 M. A. Robb, J. R. Cheeseman, G. Scalmani, V. Barone, 
 G. A. Petersson, H. Nakatsuji, X. Li, M. Caricato, A. V. Marenich, 
 J. Bloino, B. G. Janesko, R. Gomperts, B. Mennucci, H. P. Hratchian, 
 J. V. Ortiz, A. F. Izmaylov, J. L. Sonnenberg, D. Williams-Young, 
 F. Ding, F. Lipparini, F. Egidi, J. Goings, B. Peng, A. Petrone, 
 T. Henderson, D. Ranasinghe, V. G. Zakrzewski, J. Gao, N. Rega, 
 G. Zheng, W. Liang, M. Hada, M. Ehara, K. Toyota, R. Fukuda, 
 J. Hasegawa, M. Ishida, T. Nakajima, Y. Honda, O. Kitao, H. Nakai, 
 T. Vreven, K. Throssell, J. A. Montgomery, Jr., J. E. Peralta, 
 F. Ogliaro, M. J. Bearpark, J. J. Heyd, E. N. Brothers, K. N. Kudin, 
 V. N. Staroverov, T. A. Keith, R. Kobayashi, J. Normand, 
 K. Raghavachari, A. P. Rendell, J. C. Burant, S. S. Iyengar, 
 J. Tomasi, M. Cossi, J. M. Millam, M. Klene, C. Adamo, R. Cammi, 
 J. W. Ochterski, R. L. Martin, K. Morokuma, O. Farkas, 
 J. B. Foresman, and D. J. Fox, Gaussian, Inc., Wallingford CT, 2016.
 
 ******************************************
 Gaussian 16:  ES64L-G16RevA.03 25-Dec-2016
                 7-Jun-2021 
 ******************************************
 %nproc=8
 Will use up to    8 processors via shared memory.
 %Mem=4GB
 ----------------------------------------------------------------------
 #t B3LYP/LANL2DZ # SCRF=(Solvent=Water) # Gfinput IOP(6/7=3) Pop=hirsh
 feld Density Test # Units(Ang,Deg)
 ----------------------------------------------------------------------
 ----------
 3-tio2.pdb
 ----------
 Symbolic Z-matrix:
 Charge = -1 Multiplicity = 2
 Ti                   -0.32444  -0.00006  -0.05383 
 Ti                   -3.0684   -0.00002   0.37802 
 O                    -1.65718  -1.23223   0.15453 
 O                    -1.65723   1.23217   0.15427 
 O                     1.1095   -0.00065  -1.27744 
 O                     1.0367    0.00028   1.18443 
 O                    -3.93873  -0.00023  -1.02618 
 Ti                    2.45252  -0.00006  -0.02878 
 O                     3.35891  -1.53277  -0.0025 
 H                     3.90908  -2.32849   0.01445 
 O                     3.35749   1.53329  -0.00295 
 H                     3.90206   2.33284   0.01316 
 
                    Distance matrix (angstroms):
                    1          2          3          4          5
     1  Ti   0.000000
     2  Ti   2.777735   0.000000
     3  O    1.826979   1.886751   0.000000
     4  O    1.827026   1.886732   2.464400   0.000000
     5  O    1.885048   4.493929   3.349902   3.350289   0.000000
     6  O    1.840106   4.183556   3.136362   3.136246   2.462946
     7  O    3.742801   1.652045   2.849100   2.849125   5.054479
     8  Ti   2.777073   5.535887   4.294354   4.294408   1.833809
     9  O    3.989850   6.618492   5.027538   5.729846   3.005447
    10  H    4.832074   7.364726   5.674915   6.609210   3.863349
    11  O    3.988779   6.617268   5.728858   5.026212   3.005122
    12  H    4.828065   7.359529   6.605669   5.668959   3.861245
                    6          7          8          9         10
     6  O    0.000000
     7  O    5.444419   0.000000
     8  Ti   1.864517   6.468608   0.000000
     9  O    3.025178   7.526762   1.780852   0.000000
    10  H    3.878478   8.251777   2.746820   0.967546   0.000000
    11  O    3.024245   7.525524   1.780674   3.066060   3.901013
    12  H    3.875951   8.246298   2.746880   3.903613   4.661335
                   11         12
    11  O    0.000000
    12  H    0.967521   0.000000
 Framework group  C1[X(H2O7Ti3)]
 Deg. of freedom    30
                         Standard orientation:                         
 ---------------------------------------------------------------------
 Center     Atomic      Atomic             Coordinates (Angstroms)
 Number     Number       Type             X           Y           Z
 ---------------------------------------------------------------------
      1         22           0        0.324438   -0.000061    0.053829
      2         22           0        3.068398   -0.000022   -0.378021
      3          8           0        1.657178   -1.232232   -0.154531
      4          8           0        1.657229    1.232168   -0.154271
      5          8           0       -1.109502   -0.000651    1.277439
      6          8           0       -1.036702    0.000279   -1.184431
      7          8           0        3.938728   -0.000232    1.026179
      8         22           0       -2.452522   -0.000061    0.028779
      9          8           0       -3.358912   -1.532770    0.002499
     10          1           0       -3.909082   -2.328490   -0.014451
     11          8           0       -3.357491    1.533290    0.002949
     12          1           0       -3.902061    2.332840   -0.013161
 ---------------------------------------------------------------------
 Rotational constants (GHZ):           2.4313751           0.3194705           0.3075068
 AO basis set in the form of general basis input (Overlap normalization):
      1 0
 S   3 1.00       0.000000000000
      0.1098000000D+01 -0.1023676994D+00
      0.4178000000D+00 -0.3753172148D+00
      0.8720000000D-01  0.1215423149D+01
 S   3 1.00       0.000000000000
      0.4372000000D+01 -0.3637098367D+00
      0.1098000000D+01  0.8184533826D+00
      0.4178000000D+00  0.4184526423D+00
 S   1 1.00       0.000000000000
      0.3140000000D-01  0.1000000000D+01
 P   3 1.00       0.000000000000
      0.1252000000D+02 -0.4569080054D-01
      0.1491000000D+01  0.6203313074D+00
      0.4859000000D+00  0.4765329057D+00
 P   1 1.00       0.000000000000
      0.5300000000D-01  0.1000000000D+01
 P   1 1.00       0.000000000000
      0.1600000000D-01  0.1000000000D+01
 D   4 1.00       0.000000000000
      0.2021000000D+02  0.3416819898D-01
      0.5495000000D+01  0.1710005949D+00
      0.1699000000D+01  0.4405848869D+00
      0.4840000000D+00  0.6114245818D+00
 D   1 1.00       0.000000000000
      0.1157000000D+00  0.1000000000D+01
 ****
      2 0
 S   3 1.00       0.000000000000
      0.1098000000D+01 -0.1023676994D+00
      0.4178000000D+00 -0.3753172148D+00
      0.8720000000D-01  0.1215423149D+01
 S   3 1.00       0.000000000000
      0.4372000000D+01 -0.3637098367D+00
      0.1098000000D+01  0.8184533826D+00
      0.4178000000D+00  0.4184526423D+00
 S   1 1.00       0.000000000000
      0.3140000000D-01  0.1000000000D+01
 P   3 1.00       0.000000000000
      0.1252000000D+02 -0.4569080054D-01
      0.1491000000D+01  0.6203313074D+00
      0.4859000000D+00  0.4765329057D+00
 P   1 1.00       0.000000000000
      0.5300000000D-01  0.1000000000D+01
 P   1 1.00       0.000000000000
      0.1600000000D-01  0.1000000000D+01
 D   4 1.00       0.000000000000
      0.2021000000D+02  0.3416819898D-01
      0.5495000000D+01  0.1710005949D+00
      0.1699000000D+01  0.4405848869D+00
      0.4840000000D+00  0.6114245818D+00
 D   1 1.00       0.000000000000
      0.1157000000D+00  0.1000000000D+01
 ****
      3 0
 S   7 1.00       0.000000000000
      0.7817000000D+04  0.1176000331D-02
      0.1176000000D+04  0.8968002523D-02
      0.2732000000D+03  0.4286801206D-01
      0.8117000000D+02  0.1439300405D+00
      0.2718000000D+02  0.3556301000D+00
      0.9532000000D+01  0.4612481297D+00
      0.3414000000D+01  0.1402060394D+00
 S   2 1.00       0.000000000000
      0.9532000000D+01 -0.1541530739D+00
      0.9398000000D+00  0.1056914507D+01
 S   1 1.00       0.000000000000
      0.2846000000D+00  0.1000000000D+01
 P   4 1.00       0.000000000000
      0.3518000000D+02  0.1958000050D-01
      0.7904000000D+01  0.1242000032D+00
      0.2305000000D+01  0.3947140101D+00
      0.7171000000D+00  0.6273760161D+00
 P   1 1.00       0.000000000000
      0.2137000000D+00  0.1000000000D+01
 ****
      4 0
 S   7 1.00       0.000000000000
      0.7817000000D+04  0.1176000331D-02
      0.1176000000D+04  0.8968002523D-02
      0.2732000000D+03  0.4286801206D-01
      0.8117000000D+02  0.1439300405D+00
      0.2718000000D+02  0.3556301000D+00
      0.9532000000D+01  0.4612481297D+00
      0.3414000000D+01  0.1402060394D+00
 S   2 1.00       0.000000000000
      0.9532000000D+01 -0.1541530739D+00
      0.9398000000D+00  0.1056914507D+01
 S   1 1.00       0.000000000000
      0.2846000000D+00  0.1000000000D+01
 P   4 1.00       0.000000000000
      0.3518000000D+02  0.1958000050D-01
      0.7904000000D+01  0.1242000032D+00
      0.2305000000D+01  0.3947140101D+00
      0.7171000000D+00  0.6273760161D+00
 P   1 1.00       0.000000000000
      0.2137000000D+00  0.1000000000D+01
 ****
      5 0
 S   7 1.00       0.000000000000
      0.7817000000D+04  0.1176000331D-02
      0.1176000000D+04  0.8968002523D-02
      0.2732000000D+03  0.4286801206D-01
      0.8117000000D+02  0.1439300405D+00
      0.2718000000D+02  0.3556301000D+00
      0.9532000000D+01  0.4612481297D+00
      0.3414000000D+01  0.1402060394D+00
 S   2 1.00       0.000000000000
      0.9532000000D+01 -0.1541530739D+00
      0.9398000000D+00  0.1056914507D+01
 S   1 1.00       0.000000000000
      0.2846000000D+00  0.1000000000D+01
 P   4 1.00       0.000000000000
      0.3518000000D+02  0.1958000050D-01
      0.7904000000D+01  0.1242000032D+00
      0.2305000000D+01  0.3947140101D+00
      0.7171000000D+00  0.6273760161D+00
 P   1 1.00       0.000000000000
      0.2137000000D+00  0.1000000000D+01
 ****
      6 0
 S   7 1.00       0.000000000000
      0.7817000000D+04  0.1176000331D-02
      0.1176000000D+04  0.8968002523D-02
      0.2732000000D+03  0.4286801206D-01
      0.8117000000D+02  0.1439300405D+00
      0.2718000000D+02  0.3556301000D+00
      0.9532000000D+01  0.4612481297D+00
      0.3414000000D+01  0.1402060394D+00
 S   2 1.00       0.000000000000
      0.9532000000D+01 -0.1541530739D+00
      0.9398000000D+00  0.1056914507D+01
 S   1 1.00       0.000000000000
      0.2846000000D+00  0.1000000000D+01
 P   4 1.00       0.000000000000
      0.3518000000D+02  0.1958000050D-01
      0.7904000000D+01  0.1242000032D+00
      0.2305000000D+01  0.3947140101D+00
      0.7171000000D+00  0.6273760161D+00
 P   1 1.00       0.000000000000
      0.2137000000D+00  0.1000000000D+01
 ****
      7 0
 S   7 1.00       0.000000000000
      0.7817000000D+04  0.1176000331D-02
      0.1176000000D+04  0.8968002523D-02
      0.2732000000D+03  0.4286801206D-01
      0.8117000000D+02  0.1439300405D+00
      0.2718000000D+02  0.3556301000D+00
      0.9532000000D+01  0.4612481297D+00
      0.3414000000D+01  0.1402060394D+00
 S   2 1.00       0.000000000000
      0.9532000000D+01 -0.1541530739D+00
      0.9398000000D+00  0.1056914507D+01
 S   1 1.00       0.000000000000
      0.2846000000D+00  0.1000000000D+01
 P   4 1.00       0.000000000000
      0.3518000000D+02  0.1958000050D-01
      0.7904000000D+01  0.1242000032D+00
      0.2305000000D+01  0.3947140101D+00
      0.7171000000D+00  0.6273760161D+00
 P   1 1.00       0.000000000000
      0.2137000000D+00  0.1000000000D+01
 ****
      8 0
 S   3 1.00       0.000000000000
      0.1098000000D+01 -0.1023676994D+00
      0.4178000000D+00 -0.3753172148D+00
      0.8720000000D-01  0.1215423149D+01
 S   3 1.00       0.000000000000
      0.4372000000D+01 -0.3637098367D+00
      0.1098000000D+01  0.8184533826D+00
      0.4178000000D+00  0.4184526423D+00
 S   1 1.00       0.000000000000
      0.3140000000D-01  0.1000000000D+01
 P   3 1.00       0.000000000000
      0.1252000000D+02 -0.4569080054D-01
      0.1491000000D+01  0.6203313074D+00
      0.4859000000D+00  0.4765329057D+00
 P   1 1.00       0.000000000000
      0.5300000000D-01  0.1000000000D+01
 P   1 1.00       0.000000000000
      0.1600000000D-01  0.1000000000D+01
 D   4 1.00       0.000000000000
      0.2021000000D+02  0.3416819898D-01
      0.5495000000D+01  0.1710005949D+00
      0.1699000000D+01  0.4405848869D+00
      0.4840000000D+00  0.6114245818D+00
 D   1 1.00       0.000000000000
      0.1157000000D+00  0.1000000000D+01
 ****
      9 0
 S   7 1.00       0.000000000000
      0.7817000000D+04  0.1176000331D-02
      0.1176000000D+04  0.8968002523D-02
      0.2732000000D+03  0.4286801206D-01
      0.8117000000D+02  0.1439300405D+00
      0.2718000000D+02  0.3556301000D+00
      0.9532000000D+01  0.4612481297D+00
      0.3414000000D+01  0.1402060394D+00
 S   2 1.00       0.000000000000
      0.9532000000D+01 -0.1541530739D+00
      0.9398000000D+00  0.1056914507D+01
 S   1 1.00       0.000000000000
      0.2846000000D+00  0.1000000000D+01
 P   4 1.00       0.000000000000
      0.3518000000D+02  0.1958000050D-01
      0.7904000000D+01  0.1242000032D+00
      0.2305000000D+01  0.3947140101D+00
      0.7171000000D+00  0.6273760161D+00
 P   1 1.00       0.000000000000
      0.2137000000D+00  0.1000000000D+01
 ****
     10 0
 S   3 1.00       0.000000000000
      0.1924060000D+02  0.3282807697D-01
      0.2899200000D+01  0.2312085421D+00
      0.6534000000D+00  0.8172399161D+00
 S   1 1.00       0.000000000000
      0.1776000000D+00  0.1000000000D+01
 ****
     11 0
 S   7 1.00       0.000000000000
      0.7817000000D+04  0.1176000331D-02
      0.1176000000D+04  0.8968002523D-02
      0.2732000000D+03  0.4286801206D-01
      0.8117000000D+02  0.1439300405D+00
      0.2718000000D+02  0.3556301000D+00
      0.9532000000D+01  0.4612481297D+00
      0.3414000000D+01  0.1402060394D+00
 S   2 1.00       0.000000000000
      0.9532000000D+01 -0.1541530739D+00
      0.9398000000D+00  0.1056914507D+01
 S   1 1.00       0.000000000000
      0.2846000000D+00  0.1000000000D+01
 P   4 1.00       0.000000000000
      0.3518000000D+02  0.1958000050D-01
      0.7904000000D+01  0.1242000032D+00
      0.2305000000D+01  0.3947140101D+00
      0.7171000000D+00  0.6273760161D+00
 P   1 1.00       0.000000000000
      0.2137000000D+00  0.1000000000D+01
 ****
     12 0
 S   3 1.00       0.000000000000
      0.1924060000D+02  0.3282807697D-01
      0.2899200000D+01  0.2312085421D+00
      0.6534000000D+00  0.8172399161D+00
 S   1 1.00       0.000000000000
      0.1776000000D+00  0.1000000000D+01
 ****

 Effective core potential in the form of general ECP input:
      1 0
 Ti1-ECP   2 10
 D component
  3
  1      265.3263909      -10.00000000    0.00000000
  2       47.7687815      -51.84278160    0.00000000
  2       11.8903334       -9.14291450    0.00000000
 S-D projection
  5
  0       81.4730696        3.00000000    0.00000000
  1       72.6496724       19.48255790    0.00000000
  2       31.8128213      207.33492790    0.00000000
  2        6.1664468      235.67445010    0.00000000
  2        5.8268347     -166.87843870    0.00000000
 P-D projection
  5
  0       50.2966943        5.00000000    0.00000000
  1       63.5089754        5.53488220    0.00000000
  2       26.0996084      177.84193840    0.00000000
  2        5.6022573      107.42071530    0.00000000
  2        5.2171069      -71.90659020    0.00000000
      2 0
 Ti2-ECP   2 10
 D component
  3
  1      265.3263909      -10.00000000    0.00000000
  2       47.7687815      -51.84278160    0.00000000
  2       11.8903334       -9.14291450    0.00000000
 S-D projection
  5
  0       81.4730696        3.00000000    0.00000000
  1       72.6496724       19.48255790    0.00000000
  2       31.8128213      207.33492790    0.00000000
  2        6.1664468      235.67445010    0.00000000
  2        5.8268347     -166.87843870    0.00000000
 P-D projection
  5
  0       50.2966943        5.00000000    0.00000000
  1       63.5089754        5.53488220    0.00000000
  2       26.0996084      177.84193840    0.00000000
  2        5.6022573      107.42071530    0.00000000
  2        5.2171069      -71.90659020    0.00000000
      8 0
 Ti8-ECP   2 10
 D component
  3
  1      265.3263909      -10.00000000    0.00000000
  2       47.7687815      -51.84278160    0.00000000
  2       11.8903334       -9.14291450    0.00000000
 S-D projection
  5
  0       81.4730696        3.00000000    0.00000000
  1       72.6496724       19.48255790    0.00000000
  2       31.8128213      207.33492790    0.00000000
  2        6.1664468      235.67445010    0.00000000
  2        5.8268347     -166.87843870    0.00000000
 P-D projection
  5
  0       50.2966943        5.00000000    0.00000000
  1       63.5089754        5.53488220    0.00000000
  2       26.0996084      177.84193840    0.00000000
  2        5.6022573      107.42071530    0.00000000
  2        5.2171069      -71.90659020    0.00000000
 
   133 basis functions,   339 primitive gaussians,   139 cartesian basis functions
    48 alpha electrons       47 beta electrons
       nuclear repulsion energy       709.2329436421 Hartrees.
 NAtoms=   12 NActive=   12 NUniq=   12 SFac= 1.00D+00 NAtFMM=   60 NAOKFM=F Big=F
 ------------------------------------------------------------------------------
 Polarizable Continuum Model (PCM)
 =================================
 Model                : PCM.
 Atomic radii         : UFF (Universal Force Field).
 Polarization charges : Total charges.
 Charge compensation  : None.
 Solution method      : On-the-fly selection.
 Cavity type          : Scaled VdW (van der Waals Surface) (Alpha=1.100).
 Cavity algorithm     : GePol (No added spheres)
                        Default sphere list used, NSphG=   12.
                        Lebedev-Laikov grids with approx.  5.0 points / Ang**2.
                        Smoothing algorithm: York/Karplus (Gamma=1.0000).
                        Polarization charges: spherical gaussians, with
                                              point-specific exponents (IZeta= 3).
                        Self-potential: point-specific (ISelfS= 7).
                        Self-field    : sphere-specific E.n sum rule (ISelfD= 2).
 Solvent              : Water, Eps=  78.355300 Eps(inf)=   1.777849
 ------------------------------------------------------------------------------
 Spheres list:
 ISph  on   Nord     Re0    Alpha      Xe            Ye            Ze
    1  Ti      1    1.5875  1.100      0.324438     -0.000061      0.053829
    2  Ti      2    1.5875  1.100      3.068398     -0.000022     -0.378021
    3   O      3    1.7500  1.100      1.657178     -1.232232     -0.154531
    4   O      4    1.7500  1.100      1.657229      1.232168     -0.154271
    5   O      5    1.7500  1.100     -1.109502     -0.000651      1.277439
    6   O      6    1.7500  1.100     -1.036702      0.000279     -1.184431
    7   O      7    1.7500  1.100      3.938728     -0.000232      1.026179
    8  Ti      8    1.5875  1.100     -2.452522     -0.000061      0.028779
    9   O      9    1.7500  1.100     -3.358912     -1.532770      0.002499
   10   H     10    1.4430  1.100     -3.909082     -2.328490     -0.014451
   11   O     11    1.7500  1.100     -3.357491      1.533290      0.002949
   12   H     12    1.4430  1.100     -3.902061      2.332840     -0.013161
 ------------------------------------------------------------------------------
   1 Symmetry operations used in ECPInt.
 ECPInt:  NShTT=    2016 NPrTT=   13777 LenC2=    1945 LenP2D=    9110.
 LDataN:  DoStor=T MaxTD1= 4 Len=   56
 ExpMin= 1.60D-02 ExpMax= 7.82D+03 ExpMxC= 2.73D+02 IAcc=3 IRadAn=         5 AccDes= 0.00D+00
 Harris functional with IExCor=  402 and IRadAn=       5 diagonalized for initial guess.
 HarFok:  IExCor=  402 AccDes= 0.00D+00 IRadAn=         5 IDoV= 1 UseB2=F ITyADJ=14
 ICtDFT=  3500011 ScaDFX=  1.000000  1.000000  1.000000  1.000000
 FoFCou: FMM=F IPFlag=           0 FMFlag=      100000 FMFlg1=           0
         NFxFlg=           0 DoJE=T BraDBF=F KetDBF=T FulRan=T
         wScrn=  0.000000 ICntrl=       500 IOpCl=  0 I1Cent=   200000004 NGrid=           0
         NMat0=    1 NMatS0=      1 NMatT0=    0 NMatD0=    1 NMtDS0=    0 NMtDT0=    0
 Petite list used in FoFCou.
 Initial guess <Sx>= 0.0000 <Sy>= 0.0000 <Sz>= 0.5000 <S**2>= 0.7500 S= 0.5000
 Inv3:  Mode=1 IEnd=     7254075.
 Iteration    1 A*A^-1 deviation from unit magnitude is 2.89D-15 for    569.
 Iteration    1 A*A^-1 deviation from orthogonality  is 2.22D-15 for   1268    131.
 Iteration    1 A^-1*A deviation from unit magnitude is 3.11D-15 for    569.
 Iteration    1 A^-1*A deviation from orthogonality  is 9.38D-15 for   1358   1305.
 EnCoef did   100 forward-backward iterations
 EnCoef did   100 forward-backward iterations
 EnCoef did     5 forward-backward iterations
 Error on total polarization charges =  0.02794
 SCF Done:  E(UB3LYP) =  -702.831618781     A.U. after   31 cycles
            NFock= 31  Conv=0.53D-08     -V/T= 2.1729
 <Sx>= 0.0000 <Sy>= 0.0000 <Sz>= 0.5000 <S**2>= 0.7621 S= 0.5060
 <L.S>=  0.00000000000    
 Annihilation of the first spin contaminant:
 S**2 before annihilation     0.7621,   after     0.7501

 **********************************************************************

            Population analysis using the SCF density.

 **********************************************************************

 Orbital symmetries:
 Alpha Orbitals:
       Occupied  (A) (A) (A) (A) (A) (A) (A) (A) (A) (A) (A) (A)
                 (A) (A) (A) (A) (A) (A) (A) (A) (A) (A) (A) (A)
                 (A) (A) (A) (A) (A) (A) (A) (A) (A) (A) (A) (A)
                 (A) (A) (A) (A) (A) (A) (A) (A) (A) (A) (A) (A)
       Virtual   (A) (A) (A) (A) (A) (A) (A) (A) (A) (A) (A) (A)
                 (A) (A) (A) (A) (A) (A) (A) (A) (A) (A) (A) (A)
                 (A) (A) (A) (A) (A) (A) (A) (A) (A) (A) (A) (A)
                 (A) (A) (A) (A) (A) (A) (A) (A) (A) (A) (A) (A)
                 (A) (A) (A) (A) (A) (A) (A) (A) (A) (A) (A) (A)
                 (A) (A) (A) (A) (A) (A) (A) (A) (A) (A) (A) (A)
                 (A) (A) (A) (A) (A) (A) (A) (A) (A) (A) (A) (A)
                 (A)
 Beta  Orbitals:
       Occupied  (A) (A) (A) (A) (A) (A) (A) (A) (A) (A) (A) (A)
                 (A) (A) (A) (A) (A) (A) (A) (A) (A) (A) (A) (A)
                 (A) (A) (A) (A) (A) (A) (A) (A) (A) (A) (A) (A)
                 (A) (A) (A) (A) (A) (A) (A) (A) (A) (A) (A)
       Virtual   (A) (A) (A) (A) (A) (A) (A) (A) (A) (A) (A) (A)
                 (A) (A) (A) (A) (A) (A) (A) (A) (A) (A) (A) (A)
                 (A) (A) (A) (A) (A) (A) (A) (A) (A) (A) (A) (A)
                 (A) (A) (A) (A) (A) (A) (A) (A) (A) (A) (A) (A)
                 (A) (A) (A) (A) (A) (A) (A) (A) (A) (A) (A) (A)
                 (A) (A) (A) (A) (A) (A) (A) (A) (A) (A) (A) (A)
                 (A) (A) (A) (A) (A) (A) (A) (A) (A) (A) (A) (A)
                 (A) (A)
 The electronic state is 2-A.
 Alpha  occ. eigenvalues --  -19.11879 -19.11875 -19.09437 -19.09184 -19.08898
 Alpha  occ. eigenvalues --  -19.08897 -19.07989  -2.41396  -2.39177  -2.38135
 Alpha  occ. eigenvalues --   -1.54229  -1.54057  -1.53101  -1.52446  -1.51910
 Alpha  occ. eigenvalues --   -1.51121  -1.50633  -1.50342  -1.50224  -0.95053
 Alpha  occ. eigenvalues --   -0.94434  -0.88342  -0.86744  -0.86118  -0.86111
 Alpha  occ. eigenvalues --   -0.83131  -0.49468  -0.48307  -0.36603  -0.34813
 Alpha  occ. eigenvalues --   -0.34511  -0.34048  -0.33562  -0.33212  -0.32956
 Alpha  occ. eigenvalues --   -0.32736  -0.32555  -0.31431  -0.31027  -0.30968
 Alpha  occ. eigenvalues --   -0.29593  -0.29179  -0.28191  -0.27931  -0.27064
 Alpha  occ. eigenvalues --   -0.26033  -0.25227  -0.11200
 Alpha virt. eigenvalues --   -0.05564  -0.02904  -0.02709  -0.01618  -0.01228
 Alpha virt. eigenvalues --   -0.00613  -0.00288   0.00117   0.01232   0.01573
 Alpha virt. eigenvalues --    0.01745   0.01913   0.02057   0.02226   0.02914
 Alpha virt. eigenvalues --    0.03024   0.03321   0.03732   0.04241   0.04490
 Alpha virt. eigenvalues --    0.05070   0.05190   0.06417   0.06538   0.08344
 Alpha virt. eigenvalues --    0.10564   0.13472   0.13663   0.15288   0.15327
 Alpha virt. eigenvalues --    0.17026   0.17677   0.17999   0.18939   0.20419
 Alpha virt. eigenvalues --    0.21634   0.23449   0.32812   0.33752   0.34541
 Alpha virt. eigenvalues --    0.35590   0.36276   0.36442   0.36765   0.38427
 Alpha virt. eigenvalues --    0.38649   0.40037   0.40054   0.45004   0.47119
 Alpha virt. eigenvalues --    0.51808   0.53040   0.64088   0.70320   0.74414
 Alpha virt. eigenvalues --    0.76208   0.76903   0.76972   0.80594   0.83117
 Alpha virt. eigenvalues --    0.83441   0.85402   0.86956   0.87110   0.89588
 Alpha virt. eigenvalues --    0.90609   0.90893   0.94910   0.96702   0.98420
 Alpha virt. eigenvalues --    0.98718   1.03126   1.06791   1.07245   1.12091
 Alpha virt. eigenvalues --    1.38065   1.50656   1.52144   1.57258   1.63050
 Alpha virt. eigenvalues --    1.65226   1.73663   3.78253  11.07585  16.21944
  Beta  occ. eigenvalues --  -19.11897 -19.11894 -19.09484 -19.09224 -19.08979
  Beta  occ. eigenvalues --  -19.08978 -19.08051  -2.40372  -2.37889  -2.36151
  Beta  occ. eigenvalues --   -1.53515  -1.53304  -1.51902  -1.51346  -1.50828
  Beta  occ. eigenvalues --   -1.49448  -1.49132  -1.47870  -1.47081  -0.95073
  Beta  occ. eigenvalues --   -0.94451  -0.88454  -0.86826  -0.86260  -0.86219
  Beta  occ. eigenvalues --   -0.83245  -0.49356  -0.48260  -0.36301  -0.34837
  Beta  occ. eigenvalues --   -0.34537  -0.33780  -0.33549  -0.33138  -0.32858
  Beta  occ. eigenvalues --   -0.32620  -0.32250  -0.31462  -0.31041  -0.30826
  Beta  occ. eigenvalues --   -0.29577  -0.29110  -0.28061  -0.28008  -0.27130
  Beta  occ. eigenvalues --   -0.26086  -0.25360
  Beta virt. eigenvalues --   -0.02950  -0.02523  -0.02323  -0.01336  -0.00938
  Beta virt. eigenvalues --   -0.00468  -0.00166  -0.00105   0.01022   0.01580
  Beta virt. eigenvalues --    0.01884   0.02211   0.02219   0.02327   0.03124
  Beta virt. eigenvalues --    0.03138   0.03546   0.03821   0.04069   0.04586
  Beta virt. eigenvalues --    0.05037   0.05289   0.06252   0.07111   0.07285
  Beta virt. eigenvalues --    0.08521   0.10701   0.13560   0.13869   0.15312
  Beta virt. eigenvalues --    0.15480   0.17186   0.17876   0.18053   0.19052
  Beta virt. eigenvalues --    0.20564   0.21683   0.24005   0.33433   0.33756
  Beta virt. eigenvalues --    0.35192   0.35731   0.36380   0.36466   0.36967
  Beta virt. eigenvalues --    0.38702   0.39150   0.40097   0.40324   0.45198
  Beta virt. eigenvalues --    0.47351   0.52222   0.53228   0.64274   0.70429
  Beta virt. eigenvalues --    0.74423   0.76289   0.76869   0.76961   0.80551
  Beta virt. eigenvalues --    0.83132   0.83425   0.85440   0.86921   0.87033
  Beta virt. eigenvalues --    0.89571   0.90619   0.90902   0.94973   0.96684
  Beta virt. eigenvalues --    0.98452   0.98743   1.03097   1.06745   1.07299
  Beta virt. eigenvalues --    1.12120   1.38013   1.50629   1.52123   1.57268
  Beta virt. eigenvalues --    1.63030   1.65249   1.73678   3.78042  11.06664
  Beta virt. eigenvalues --   16.20513
     Alpha Molecular Orbital Coefficients:
                           1         2         3         4         5
                           O         O         O         O         O
     Eigenvalues --   -19.11879 -19.11875 -19.09437 -19.09184 -19.08898
   1 1   Ti 1S         -0.00000  -0.00001   0.00077   0.00116   0.00093
   2        2S          0.00005   0.00005   0.00021   0.00026   0.00026
   3        3S          0.00029   0.00028  -0.00031  -0.00005  -0.00029
   4        4PX        -0.00003  -0.00003  -0.00010  -0.00008   0.00009
   5        4PY        -0.00001   0.00001   0.00000  -0.00000  -0.00019
   6        4PZ         0.00000   0.00000  -0.00017   0.00014  -0.00001
   7        5PX         0.00022   0.00022  -0.00208  -0.00158   0.00155
   8        5PY        -0.00012   0.00012   0.00000  -0.00000  -0.00040
   9        5PZ        -0.00003  -0.00003  -0.00020   0.00039  -0.00008
  10        6PX        -0.00008  -0.00008  -0.00015  -0.00007   0.00010
  11        6PY         0.00026  -0.00026  -0.00000  -0.00000   0.00037
  12        6PZ        -0.00003  -0.00003   0.00037  -0.00024   0.00002
  13        7D 0       -0.00002  -0.00002   0.00002   0.00001  -0.00003
  14        7D+1        0.00000   0.00000   0.00007  -0.00009  -0.00001
  15        7D-1        0.00000  -0.00000  -0.00000  -0.00000   0.00002
  16        7D+2        0.00001   0.00001   0.00003   0.00003   0.00000
  17        7D-2        0.00001  -0.00001  -0.00000   0.00000  -0.00007
  18        8D 0        0.00001   0.00001  -0.00004  -0.00011  -0.00050
  19        8D+1       -0.00000  -0.00000   0.00051  -0.00073  -0.00029
  20        8D-1        0.00002  -0.00002  -0.00000  -0.00000   0.00010
  21        8D+2       -0.00008  -0.00009   0.00070   0.00097   0.00036
  22        8D-2       -0.00035   0.00035  -0.00000   0.00000  -0.00073
  23 2   Ti 1S         -0.00001  -0.00001   0.00030   0.00004   0.00010
  24        2S         -0.00000  -0.00000   0.00012   0.00003   0.00002
  25        3S         -0.00024  -0.00024   0.00118   0.00075  -0.00061
  26        4PX        -0.00000  -0.00000  -0.00002  -0.00002  -0.00009
  27        4PY         0.00001  -0.00001   0.00000   0.00000  -0.00015
  28        4PZ         0.00000   0.00000  -0.00000  -0.00001   0.00004
  29        5PX         0.00012   0.00012  -0.00056  -0.00033  -0.00011
  30        5PY         0.00010  -0.00011   0.00000  -0.00000  -0.00029
  31        5PZ        -0.00002  -0.00002   0.00007   0.00018  -0.00005
  32        6PX         0.00006   0.00006  -0.00011  -0.00008   0.00017
  33        6PY        -0.00009   0.00009   0.00000   0.00000  -0.00001
  34        6PZ         0.00000   0.00000  -0.00012   0.00011  -0.00005
  35        7D 0        0.00000   0.00000  -0.00001  -0.00003  -0.00004
  36        7D+1        0.00000   0.00000  -0.00001   0.00001  -0.00000
  37        7D-1       -0.00000   0.00000   0.00000   0.00000  -0.00002
  38        7D+2        0.00000   0.00000  -0.00001  -0.00001  -0.00000
  39        7D-2        0.00001  -0.00001   0.00000  -0.00000   0.00012
  40        8D 0        0.00000   0.00000  -0.00005   0.00009  -0.00025
  41        8D+1       -0.00000  -0.00000   0.00015  -0.00020  -0.00013
  42        8D-1        0.00000  -0.00000  -0.00000  -0.00000  -0.00001
  43        8D+2       -0.00003  -0.00003   0.00008  -0.00009   0.00004
  44        8D-2       -0.00008   0.00008  -0.00000   0.00000   0.00029
  45 3   O  1S          0.00001  -0.00002   0.00004   0.00034   0.98917
  46        2S          0.00004  -0.00005   0.00001   0.00007   0.00633
  47        3S         -0.00016   0.00018   0.00000  -0.00024  -0.00430
  48        4PX         0.00001   0.00001   0.00001   0.00002   0.00000
  49        4PY        -0.00001  -0.00000   0.00003   0.00003   0.00070
  50        4PZ         0.00000  -0.00000   0.00001  -0.00001  -0.00001
  51        5PX         0.00004  -0.00007  -0.00007  -0.00009   0.00003
  52        5PY         0.00002   0.00005  -0.00023  -0.00035  -0.00083
  53        5PZ        -0.00002   0.00003  -0.00006   0.00008   0.00001
  54 4   O  1S         -0.00002   0.00001   0.00004   0.00034  -0.13866
  55        2S         -0.00005   0.00004   0.00001   0.00007  -0.00081
  56        3S          0.00018  -0.00016   0.00000  -0.00024   0.00024
  57        4PX         0.00001   0.00001   0.00001   0.00002  -0.00000
  58        4PY         0.00000   0.00001  -0.00003  -0.00003   0.00015
  59        4PZ        -0.00000   0.00000   0.00001  -0.00001   0.00000
  60        5PX        -0.00007   0.00004  -0.00007  -0.00009  -0.00001
  61        5PY        -0.00005  -0.00002   0.00023   0.00035  -0.00002
  62        5PZ         0.00003  -0.00002  -0.00006   0.00008   0.00000
  63 5   O  1S         -0.00000  -0.00000  -0.00020   0.99884  -0.00028
  64        2S         -0.00001  -0.00001   0.00011   0.00648   0.00006
  65        3S          0.00013   0.00013  -0.00052  -0.00463  -0.00020
  66        4PX        -0.00002  -0.00002   0.00000  -0.00004  -0.00001
  67        4PY         0.00001  -0.00001  -0.00000   0.00000   0.00002
  68        4PZ        -0.00002  -0.00002   0.00006  -0.00072  -0.00003
  69        5PX         0.00013   0.00013  -0.00001  -0.00010  -0.00000
  70        5PY         0.00001  -0.00001  -0.00000  -0.00000  -0.00010
  71        5PZ         0.00007   0.00007   0.00008   0.00093   0.00025
  72 6   O  1S         -0.00000  -0.00000   0.99884   0.00021  -0.00003
  73        2S         -0.00001  -0.00001   0.00642   0.00011   0.00001
  74        3S          0.00014   0.00014  -0.00442  -0.00052   0.00002
  75        4PX        -0.00002  -0.00002  -0.00004  -0.00000  -0.00000
  76        4PY         0.00000  -0.00000  -0.00000   0.00000   0.00000
  77        4PZ         0.00002   0.00002   0.00074  -0.00005   0.00002
  78        5PX         0.00011   0.00011   0.00005   0.00005   0.00005
  79        5PY         0.00002  -0.00002   0.00000   0.00000  -0.00002
  80        5PZ        -0.00006  -0.00006  -0.00088  -0.00015  -0.00018
  81 7   O  1S         -0.00000  -0.00000   0.00001  -0.00003   0.00001
  82        2S         -0.00000  -0.00000   0.00002  -0.00002   0.00000
  83        3S          0.00001   0.00001  -0.00010   0.00008   0.00008
  84        4PX        -0.00000  -0.00000   0.00001  -0.00001  -0.00002
  85        4PY        -0.00000   0.00000   0.00000  -0.00000   0.00002
  86        4PZ        -0.00000  -0.00000   0.00000   0.00002  -0.00001
  87        5PX         0.00000   0.00000  -0.00007   0.00007   0.00008
  88        5PY         0.00001  -0.00001  -0.00000   0.00000  -0.00005
  89        5PZ         0.00000   0.00000   0.00003  -0.00010   0.00007
  90 8   Ti 1S          0.00097   0.00096   0.00035   0.00037   0.00009
  91        2S          0.00024   0.00024   0.00012   0.00013   0.00005
  92        3S         -0.00036  -0.00035  -0.00098  -0.00082   0.00087
  93        4PX        -0.00003  -0.00003   0.00010   0.00010   0.00002
  94        4PY         0.00004  -0.00004   0.00000   0.00000   0.00001
  95        4PZ         0.00000   0.00000  -0.00015   0.00015   0.00000
  96        5PX        -0.00060  -0.00059   0.00018   0.00022   0.00040
  97        5PY         0.00060  -0.00060   0.00000  -0.00000  -0.00002
  98        5PZ        -0.00000  -0.00000  -0.00034   0.00022  -0.00004
  99        6PX         0.00019   0.00019  -0.00025  -0.00024   0.00009
 100        6PY        -0.00039   0.00039   0.00000   0.00000  -0.00017
 101        6PZ         0.00001   0.00001  -0.00001  -0.00002   0.00001
 102        7D 0       -0.00005  -0.00005   0.00001   0.00002   0.00002
 103        7D+1        0.00000   0.00000  -0.00010   0.00010   0.00001
 104        7D-1       -0.00000   0.00000  -0.00000  -0.00000   0.00000
 105        7D+2       -0.00001  -0.00001   0.00002   0.00002   0.00001
 106        7D-2       -0.00001   0.00001   0.00000  -0.00000   0.00002
 107        8D 0       -0.00030  -0.00030   0.00013   0.00013  -0.00002
 108        8D+1        0.00001   0.00001  -0.00032   0.00023  -0.00004
 109        8D-1       -0.00002   0.00002  -0.00000  -0.00000   0.00001
 110        8D+2       -0.00045  -0.00044   0.00051   0.00046  -0.00004
 111        8D-2       -0.00071   0.00072   0.00000  -0.00000  -0.00039
 112 9   O  1S          0.00448   0.99880   0.00000  -0.00000   0.00002
 113        2S          0.00006   0.00648   0.00001   0.00002  -0.00005
 114        3S         -0.00002  -0.00435   0.00007   0.00005   0.00020
 115        4PX         0.00003  -0.00047   0.00001   0.00001   0.00002
 116        4PY         0.00003  -0.00056   0.00003   0.00003  -0.00001
 117        4PZ         0.00000  -0.00001   0.00001  -0.00001  -0.00000
 118        5PX        -0.00031   0.00045   0.00000  -0.00001  -0.00009
 119        5PY        -0.00015   0.00053  -0.00018  -0.00017   0.00009
 120        5PZ        -0.00001   0.00001  -0.00004   0.00004   0.00000
 121 10  H  1S         -0.00005   0.00007  -0.00005  -0.00005  -0.00001
 122        2S         -0.00011   0.00104   0.00005   0.00005  -0.00001
 123 11  O  1S          0.99880  -0.00448   0.00000  -0.00000  -0.00001
 124        2S          0.00648   0.00001   0.00001   0.00002   0.00003
 125        3S         -0.00435   0.00002   0.00007   0.00005  -0.00018
 126        4PX        -0.00046   0.00004   0.00001   0.00001  -0.00002
 127        4PY         0.00057  -0.00003  -0.00003  -0.00003   0.00001
 128        4PZ        -0.00001   0.00000   0.00001  -0.00001   0.00000
 129        5PX         0.00044  -0.00031  -0.00000  -0.00001   0.00008
 130        5PY        -0.00054   0.00015   0.00018   0.00017   0.00001
 131        5PZ         0.00001  -0.00001  -0.00004   0.00004  -0.00001
 132 12  H  1S          0.00007  -0.00005  -0.00005  -0.00005   0.00003
 133        2S          0.00104  -0.00012   0.00005   0.00005  -0.00001
                           6         7         8         9        10
                           O         O         O         O         O
     Eigenvalues --   -19.08897 -19.07989  -2.41396  -2.39177  -2.38135
   1 1   Ti 1S          0.00123  -0.00003   0.00116   0.00078  -0.00735
   2        2S          0.00034   0.00002   0.02757   0.08558   0.99720
   3        3S         -0.00039   0.00017  -0.00100   0.00407   0.00526
   4        4PX         0.00012   0.00002  -0.00135   0.00135   0.00071
   5        4PY         0.00014   0.00000  -0.00000  -0.00000  -0.00000
   6        4PZ        -0.00002  -0.00000  -0.00007  -0.00042  -0.00150
   7        5PX         0.00206  -0.00032  -0.00062   0.00119  -0.00048
   8        5PY         0.00030   0.00000  -0.00000  -0.00000  -0.00000
   9        5PZ        -0.00011  -0.00025   0.00028  -0.00013  -0.00058
  10        6PX         0.00013  -0.00005   0.00063   0.00066  -0.00033
  11        6PY        -0.00028  -0.00000   0.00001   0.00000   0.00000
  12        6PZ         0.00002   0.00022  -0.00013   0.00028   0.00014
  13        7D 0       -0.00004   0.00000  -0.00054  -0.00040  -0.00166
  14        7D+1       -0.00001  -0.00001  -0.00005  -0.00029   0.00032
  15        7D-1       -0.00001   0.00000   0.00000   0.00000   0.00000
  16        7D+2        0.00000  -0.00000   0.00073   0.00084   0.00166
  17        7D-2        0.00006   0.00000   0.00000   0.00000  -0.00000
  18        8D 0       -0.00066  -0.00003  -0.00355   0.00177   0.00254
  19        8D+1       -0.00039   0.00013   0.00091   0.00140   0.00095
  20        8D-1       -0.00007   0.00000   0.00000  -0.00000  -0.00000
  21        8D+2        0.00048  -0.00003  -0.00050   0.00283  -0.00475
  22        8D-2        0.00055  -0.00000  -0.00001  -0.00000   0.00000
  23 2   Ti 1S          0.00013   0.00102   0.00055  -0.00762   0.00086
  24        2S          0.00002   0.00045   0.00050   0.99711  -0.08708
  25        3S         -0.00080   0.00003  -0.00044  -0.00119  -0.00223
  26        4PX        -0.00011   0.00013   0.00021   0.00394  -0.00183
  27        4PY         0.00012  -0.00000   0.00000  -0.00000   0.00000
  28        4PZ         0.00005   0.00025   0.00003   0.01466  -0.00103
  29        5PX        -0.00015   0.00040  -0.00088   0.00440   0.00151
  30        5PY         0.00022  -0.00000   0.00000   0.00000  -0.00000
  31        5PZ        -0.00006   0.00090  -0.00026  -0.00208   0.00102
  32        6PX         0.00023  -0.00015   0.00040  -0.00077   0.00017
  33        6PY         0.00001   0.00000  -0.00000  -0.00000  -0.00000
  34        6PZ        -0.00006  -0.00039   0.00009  -0.00026  -0.00036
  35        7D 0       -0.00005  -0.00002   0.00002   0.00050  -0.00037
  36        7D+1       -0.00000   0.00000  -0.00001  -0.00153  -0.00012
  37        7D-1        0.00002   0.00000  -0.00000  -0.00000  -0.00000
  38        7D+2       -0.00000   0.00000  -0.00008   0.00117   0.00075
  39        7D-2       -0.00009  -0.00000   0.00000   0.00000  -0.00000
  40        8D 0       -0.00033   0.00026  -0.00014   0.00005   0.00229
  41        8D+1       -0.00017   0.00037   0.00048   0.00151   0.00084
  42        8D-1        0.00001  -0.00000   0.00000   0.00000  -0.00000
  43        8D+2        0.00006   0.00014   0.00069  -0.00147   0.00200
  44        8D-2       -0.00022  -0.00000  -0.00000  -0.00000   0.00000
  45 3   O  1S          0.13867  -0.00001  -0.00006  -0.00269  -0.00292
  46        2S          0.00097   0.00002   0.00049   0.00482   0.00525
  47        3S         -0.00098  -0.00005  -0.00142   0.00512   0.00540
  48        4PX        -0.00000  -0.00001  -0.00017   0.00379  -0.00555
  49        4PY         0.00005  -0.00000   0.00002   0.00431   0.00455
  50        4PZ        -0.00000  -0.00001   0.00006  -0.00063   0.00088
  51        5PX        -0.00001  -0.00003   0.00055  -0.00236   0.00394
  52        5PY        -0.00021  -0.00004  -0.00000  -0.00120  -0.00021
  53        5PZ         0.00001   0.00002  -0.00043   0.00058  -0.00054
  54 4   O  1S          0.98917  -0.00001  -0.00006  -0.00269  -0.00292
  55        2S          0.00635   0.00002   0.00048   0.00482   0.00525
  56        3S         -0.00441  -0.00005  -0.00141   0.00512   0.00540
  57        4PX         0.00000  -0.00001  -0.00017   0.00379  -0.00555
  58        4PY        -0.00069   0.00000  -0.00002  -0.00431  -0.00455
  59        4PZ        -0.00001  -0.00001   0.00006  -0.00063   0.00088
  60        5PX         0.00002  -0.00003   0.00055  -0.00236   0.00394
  61        5PY         0.00086   0.00004  -0.00000   0.00120   0.00021
  62        5PZ         0.00001   0.00002  -0.00043   0.00058  -0.00054
  63 5   O  1S         -0.00038   0.00002  -0.00303  -0.00019  -0.00242
  64        2S          0.00007  -0.00003   0.00572   0.00058   0.00381
  65        3S         -0.00027   0.00008   0.00488  -0.00053   0.00689
  66        4PX        -0.00001  -0.00002  -0.00482   0.00043   0.00455
  67        4PY        -0.00001  -0.00000   0.00000   0.00000   0.00000
  68        4PZ        -0.00004  -0.00001  -0.00491  -0.00021  -0.00378
  69        5PX        -0.00001   0.00010   0.00349  -0.00057  -0.00285
  70        5PY         0.00007   0.00000   0.00000  -0.00000  -0.00000
  71        5PZ         0.00033   0.00001   0.00151   0.00003  -0.00028
  72 6   O  1S         -0.00004  -0.00001  -0.00270  -0.00022  -0.00292
  73        2S          0.00001   0.00001   0.00513   0.00088   0.00507
  74        3S          0.00003  -0.00006   0.00429  -0.00165   0.00612
  75        4PX        -0.00000  -0.00001  -0.00452   0.00043   0.00510
  76        4PY        -0.00000  -0.00000  -0.00000  -0.00000  -0.00000
  77        4PZ         0.00003  -0.00000   0.00431   0.00028   0.00461
  78        5PX         0.00007  -0.00000   0.00314  -0.00075  -0.00358
  79        5PY         0.00002   0.00000   0.00000   0.00000  -0.00000
  80        5PZ        -0.00024   0.00001  -0.00136  -0.00015  -0.00010
  81 7   O  1S          0.00001   0.99884  -0.00000  -0.00617   0.00057
  82        2S          0.00000   0.00610   0.00008   0.01298  -0.00079
  83        3S          0.00011  -0.00345  -0.00029   0.00230  -0.00214
  84        4PX        -0.00002  -0.00036  -0.00001  -0.00672   0.00073
  85        4PY        -0.00001   0.00000  -0.00000   0.00000  -0.00000
  86        4PZ        -0.00002  -0.00062  -0.00002  -0.01116   0.00107
  87        5PX         0.00011   0.00030  -0.00003   0.00209  -0.00062
  88        5PY         0.00004  -0.00000   0.00000  -0.00000  -0.00000
  89        5PZ         0.00010   0.00053   0.00022   0.00478  -0.00065
  90 8   Ti 1S          0.00012  -0.00001  -0.00710   0.00044   0.00087
  91        2S          0.00007   0.00000   1.00321  -0.00328  -0.02866
  92        3S          0.00116  -0.00035   0.00514  -0.00119  -0.00292
  93        4PX         0.00003   0.00001   0.00398  -0.00013   0.00136
  94        4PY        -0.00001  -0.00000   0.00000  -0.00000  -0.00000
  95        4PZ         0.00000   0.00001   0.00074   0.00000  -0.00001
  96        5PX         0.00053  -0.00015  -0.00433  -0.00017  -0.00308
  97        5PY         0.00002  -0.00000  -0.00000   0.00000   0.00000
  98        5PZ        -0.00006   0.00010   0.00004   0.00027   0.00045
  99        6PX         0.00012  -0.00003   0.00102  -0.00070   0.00028
 100        6PY         0.00013   0.00000  -0.00000  -0.00000  -0.00000
 101        6PZ         0.00001  -0.00006  -0.00000  -0.00014  -0.00011
 102        7D 0        0.00002  -0.00000  -0.00248   0.00003  -0.00059
 103        7D+1        0.00001  -0.00000  -0.00002  -0.00003  -0.00002
 104        7D-1       -0.00000  -0.00000   0.00000  -0.00000   0.00000
 105        7D+2        0.00002   0.00000  -0.00033   0.00002   0.00083
 106        7D-2       -0.00002   0.00000  -0.00001   0.00000   0.00000
 107        8D 0       -0.00002   0.00004   0.00093  -0.00054  -0.00307
 108        8D+1       -0.00005   0.00007   0.00005   0.00024   0.00033
 109        8D-1       -0.00001  -0.00000  -0.00000   0.00000   0.00000
 110        8D+2       -0.00005  -0.00001  -0.00236  -0.00025  -0.00296
 111        8D-2        0.00030  -0.00000  -0.00001   0.00000   0.00000
 112 9   O  1S         -0.00001   0.00000  -0.00351   0.00001   0.00013
 113        2S          0.00002  -0.00000   0.00666   0.00003   0.00025
 114        3S         -0.00013   0.00000   0.00551  -0.00023  -0.00227
 115        4PX        -0.00001  -0.00000   0.00420   0.00003  -0.00009
 116        4PY        -0.00001   0.00000   0.00701  -0.00001  -0.00030
 117        4PZ         0.00000   0.00000   0.00012  -0.00000   0.00000
 118        5PX         0.00005   0.00001  -0.00507  -0.00025  -0.00063
 119        5PY         0.00002   0.00000  -0.00706  -0.00012   0.00037
 120        5PZ        -0.00001   0.00000  -0.00014   0.00001  -0.00004
 121 10  H  1S          0.00003  -0.00000  -0.00065  -0.00001   0.00025
 122        2S         -0.00001   0.00002  -0.00723  -0.00014  -0.00037
 123 11  O  1S          0.00002   0.00000  -0.00352   0.00001   0.00013
 124        2S         -0.00004  -0.00000   0.00667   0.00003   0.00025
 125        3S          0.00016   0.00000   0.00550  -0.00023  -0.00227
 126        4PX         0.00001  -0.00000   0.00419   0.00003  -0.00009
 127        4PY         0.00001  -0.00000  -0.00702   0.00001   0.00030
 128        4PZ        -0.00000   0.00000   0.00012  -0.00000   0.00000
 129        5PX        -0.00007   0.00001  -0.00503  -0.00025  -0.00062
 130        5PY        -0.00009  -0.00000   0.00709   0.00012  -0.00038
 131        5PZ         0.00000   0.00000  -0.00013   0.00001  -0.00004
 132 12  H  1S         -0.00000  -0.00000  -0.00065  -0.00001   0.00025
 133        2S         -0.00001   0.00002  -0.00723  -0.00014  -0.00037
                          11        12        13        14        15
                           O         O         O         O         O
     Eigenvalues --    -1.54229  -1.54057  -1.53101  -1.52446  -1.51910
   1 1   Ti 1S          0.00384   0.00001  -0.00032  -0.00476   0.00267
   2        2S         -0.00760  -0.00004   0.00045   0.00964  -0.00622
   3        3S          0.00078  -0.00010   0.00384   0.00426   0.00045
   4        4PX        -0.28931  -0.00143   0.01694  -0.38425   0.38382
   5        4PY        -0.00007   0.01645  -0.00002   0.00002  -0.00004
   6        4PZ        -0.00003  -0.00000   0.07007   0.05229   0.00415
   7        5PX         0.01702   0.00015   0.00476   0.01034   0.00304
   8        5PY         0.00001  -0.00218   0.00000  -0.00000   0.00000
   9        5PZ        -0.00080  -0.00000  -0.01098  -0.00104   0.00011
  10        6PX         0.00545   0.00004   0.00304   0.00413   0.00113
  11        6PY         0.00000  -0.00256  -0.00000   0.00000  -0.00000
  12        6PZ        -0.00017  -0.00000   0.00529   0.00044   0.00094
  13        7D 0       -0.00118  -0.00000  -0.00002   0.00370  -0.00274
  14        7D+1        0.00071   0.00000  -0.00201   0.00183  -0.00109
  15        7D-1       -0.00000  -0.00004   0.00000  -0.00000   0.00000
  16        7D+2        0.00432   0.00002  -0.00023  -0.00323   0.00147
  17        7D-2        0.00000  -0.00035   0.00000   0.00000  -0.00000
  18        8D 0       -0.00849  -0.00003   0.00024   0.00074  -0.00371
  19        8D+1        0.00074   0.00000   0.00502   0.00200   0.00346
  20        8D-1        0.00000   0.00048   0.00000  -0.00000   0.00000
  21        8D+2        0.00182  -0.00000  -0.00022  -0.00561   0.00426
  22        8D-2        0.00003  -0.00547  -0.00000  -0.00000  -0.00000
  23 2   Ti 1S         -0.00258  -0.00002  -0.00021   0.00010   0.00829
  24        2S          0.00139   0.00001  -0.00013  -0.01044  -0.02312
  25        3S         -0.01364  -0.00007  -0.00693  -0.01087  -0.00689
  26        4PX         0.09387   0.00050  -0.00291   0.76041  -0.24374
  27        4PY        -0.00001   0.00142  -0.00000  -0.00006  -0.00013
  28        4PZ        -0.00174  -0.00000   0.00394   0.42221   0.85988
  29        5PX         0.00913   0.00005   0.00379   0.00730  -0.00180
  30        5PY        -0.00001   0.00206   0.00000   0.00000  -0.00000
  31        5PZ        -0.00280  -0.00002   0.00114  -0.00032   0.00320
  32        6PX        -0.00116  -0.00001  -0.00018  -0.00067   0.00063
  33        6PY         0.00000   0.00086   0.00000  -0.00000   0.00000
  34        6PZ        -0.00009   0.00000  -0.00197  -0.00138  -0.00192
  35        7D 0        0.00110   0.00001  -0.00002   0.01003   0.00646
  36        7D+1        0.00122   0.00001   0.00010   0.01234   0.00540
  37        7D-1        0.00000  -0.00002  -0.00000  -0.00000  -0.00000
  38        7D+2       -0.00112  -0.00000   0.00012   0.00058   0.00406
  39        7D-2       -0.00000   0.00011   0.00000  -0.00000  -0.00000
  40        8D 0       -0.00023  -0.00000   0.00040  -0.00288  -0.00174
  41        8D+1        0.00171   0.00001   0.00001  -0.00134   0.00060
  42        8D-1       -0.00000   0.00012   0.00000   0.00000   0.00000
  43        8D+2       -0.00146  -0.00001  -0.00049  -0.00039   0.00103
  44        8D-2        0.00001  -0.00147  -0.00000  -0.00000  -0.00000
  45 3   O  1S          0.00516   0.00027  -0.00013   0.01408  -0.00984
  46        2S         -0.00994  -0.00008   0.00029  -0.03032   0.02224
  47        3S         -0.01154  -0.00265   0.00039  -0.02044   0.01001
  48        4PX         0.00281   0.00035   0.00002  -0.00353  -0.00008
  49        4PY        -0.00738  -0.00034   0.00018  -0.02022   0.01426
  50        4PZ        -0.00058  -0.00001   0.00037   0.00281   0.00429
  51        5PX        -0.00017   0.00069   0.00012   0.00279  -0.00071
  52        5PY        -0.00134  -0.00003   0.00033   0.00000  -0.00053
  53        5PZ        -0.00059  -0.00036   0.00002   0.00068   0.00059
  54 4   O  1S          0.00516  -0.00021  -0.00013   0.01408  -0.00984
  55        2S         -0.00993  -0.00002   0.00029  -0.03032   0.02224
  56        3S         -0.01157   0.00253   0.00039  -0.02044   0.01000
  57        4PX         0.00281  -0.00032   0.00002  -0.00353  -0.00008
  58        4PY         0.00738  -0.00026  -0.00018   0.02022  -0.01426
  59        4PZ        -0.00058   0.00001   0.00037   0.00281   0.00428
  60        5PX        -0.00016  -0.00069   0.00012   0.00279  -0.00071
  61        5PY         0.00134  -0.00002  -0.00034  -0.00000   0.00053
  62        5PZ        -0.00060   0.00036   0.00001   0.00068   0.00059
  63 5   O  1S         -0.01654  -0.00007  -0.01225  -0.00240   0.00266
  64        2S          0.03598   0.00016   0.02776   0.00374  -0.00550
  65        3S          0.02290   0.00009   0.01572   0.00859  -0.00428
  66        4PX        -0.00997  -0.00004  -0.01696   0.00909  -0.00735
  67        4PY        -0.00001   0.00554   0.00001   0.00000  -0.00000
  68        4PZ        -0.02427  -0.00011  -0.01307  -0.00292   0.00342
  69        5PX         0.00674   0.00002   0.00590  -0.00242   0.00373
  70        5PY        -0.00001   0.00064  -0.00000   0.00000  -0.00000
  71        5PZ         0.00124   0.00001   0.00408  -0.00171   0.00170
  72 6   O  1S         -0.01539  -0.00007   0.01228  -0.00212   0.00341
  73        2S          0.03347   0.00016  -0.02795   0.00368  -0.00658
  74        3S          0.02150   0.00009  -0.01592   0.00556  -0.00766
  75        4PX        -0.00873  -0.00004   0.01594   0.00750  -0.00814
  76        4PY        -0.00003   0.00496   0.00000  -0.00000   0.00000
  77        4PZ         0.02255   0.00011  -0.01323   0.00314  -0.00471
  78        5PX         0.00606   0.00002  -0.00579  -0.00315   0.00354
  79        5PY        -0.00001   0.00107   0.00000  -0.00000   0.00000
  80        5PZ        -0.00084  -0.00001   0.00425   0.00158  -0.00196
  81 7   O  1S         -0.00151  -0.00001  -0.00005  -0.02444  -0.01922
  82        2S          0.00341   0.00002   0.00034   0.05255   0.04252
  83        3S          0.00115   0.00001  -0.00061   0.02689   0.01749
  84        4PX        -0.00067  -0.00000  -0.00008  -0.01756  -0.02283
  85        4PY         0.00000   0.00001   0.00000   0.00001   0.00000
  86        4PZ        -0.00276  -0.00002  -0.00007  -0.03686  -0.02345
  87        5PX         0.00025   0.00000   0.00003   0.00269   0.00223
  88        5PY        -0.00000   0.00010  -0.00000  -0.00000  -0.00000
  89        5PZ         0.00110   0.00001   0.00009   0.00473   0.00467
  90 8   Ti 1S          0.00281   0.00002   0.00021   0.00231  -0.00191
  91        2S         -0.00959  -0.00005  -0.00060  -0.00164   0.00248
  92        3S          0.00787   0.00015   0.00347   0.00823   0.00220
  93        4PX         0.93124   0.00427  -0.03843  -0.20923   0.15692
  94        4PY        -0.00458   0.98962  -0.00013  -0.00010   0.00006
  95        4PZ         0.04126   0.00033   0.98990  -0.00468  -0.00568
  96        5PX         0.01166   0.00012   0.00113   0.00396   0.00063
  97        5PY        -0.00004   0.01057  -0.00000   0.00000  -0.00000
  98        5PZ         0.00080   0.00001   0.01022   0.00058   0.00045
  99        6PX        -0.00140   0.00001  -0.00052  -0.00078   0.00048
 100        6PY        -0.00000   0.00082   0.00000   0.00000   0.00000
 101        6PZ        -0.00008   0.00000  -0.00413  -0.00009  -0.00041
 102        7D 0        0.00175   0.00001   0.00065  -0.00165   0.00163
 103        7D+1        0.00084   0.00000   0.00733  -0.00012  -0.00004
 104        7D-1       -0.00000  -0.00005  -0.00000   0.00000  -0.00000
 105        7D+2        0.01084   0.00004  -0.00018  -0.00059   0.00001
 106        7D-2        0.00003  -0.00717  -0.00000   0.00000  -0.00000
 107        8D 0        0.00149   0.00000   0.00004  -0.00290   0.00290
 108        8D+1        0.00014   0.00000   0.00346   0.00049   0.00031
 109        8D-1        0.00000   0.00003   0.00000   0.00000  -0.00000
 110        8D+2        0.00026   0.00006  -0.00002   0.00076  -0.00035
 111        8D-2        0.00003  -0.00395  -0.00000  -0.00000  -0.00000
 112 9   O  1S          0.01003   0.01792  -0.00010  -0.00232   0.00173
 113        2S         -0.02157  -0.03892   0.00022   0.00515  -0.00395
 114        3S         -0.01539  -0.02656   0.00010   0.00283  -0.00185
 115        4PX        -0.00365  -0.01766  -0.00019   0.00083  -0.00066
 116        4PY        -0.01681  -0.02389   0.00015   0.00379  -0.00293
 117        4PZ        -0.00003  -0.00052   0.00680   0.00004  -0.00010
 118        5PX         0.00594   0.00960  -0.00001  -0.00142   0.00134
 119        5PY         0.00766   0.01640   0.00006  -0.00174   0.00188
 120        5PZ         0.00021   0.00036   0.00102  -0.00003   0.00010
 121 10  H  1S         -0.00030  -0.00063   0.00003   0.00019  -0.00008
 122        2S          0.00907   0.01814   0.00001  -0.00221   0.00199
 123 11  O  1S          0.01018  -0.01785  -0.00010  -0.00231   0.00173
 124        2S         -0.02191   0.03876   0.00022   0.00513  -0.00394
 125        3S         -0.01560   0.02649   0.00010   0.00282  -0.00184
 126        4PX        -0.00379   0.01763  -0.00019   0.00082  -0.00065
 127        4PY         0.01702  -0.02377  -0.00016  -0.00378   0.00292
 128        4PZ        -0.00003   0.00052   0.00680   0.00004  -0.00010
 129        5PX         0.00598  -0.00945  -0.00001  -0.00141   0.00133
 130        5PY        -0.00784   0.01641  -0.00006   0.00174  -0.00188
 131        5PZ         0.00021  -0.00034   0.00102  -0.00003   0.00010
 132 12  H  1S         -0.00031   0.00062   0.00003   0.00019  -0.00008
 133        2S          0.00923  -0.01807   0.00001  -0.00221   0.00199
                          16        17        18        19        20
                           O         O         O         O         O
     Eigenvalues --    -1.51121  -1.50633  -1.50342  -1.50224  -0.95053
   1 1   Ti 1S         -0.00000  -0.00208  -0.00000  -0.00078   0.00072
   2        2S          0.00000   0.00317   0.00000   0.00218  -0.00907
   3        3S         -0.00000   0.00244   0.00001   0.00019  -0.00642
   4        4PX        -0.00003   0.75392   0.00016  -0.11424   0.01266
   5        4PY         0.27639  -0.00021   0.95216  -0.00031   0.00000
   6        4PZ         0.00004   0.17205   0.00035   0.97348   0.00078
   7        5PX         0.00000   0.00073  -0.00000  -0.00108   0.06354
   8        5PY        -0.00682  -0.00000   0.01157  -0.00001  -0.00001
   9        5PZ        -0.00000   0.00223   0.00000   0.00957  -0.00403
  10        6PX         0.00000   0.00109  -0.00000  -0.00111   0.01035
  11        6PY         0.00338  -0.00000  -0.00660   0.00000  -0.00001
  12        6PZ         0.00000  -0.00107  -0.00000  -0.00546  -0.00064
  13        7D 0        0.00000  -0.00265   0.00000   0.00029  -0.00078
  14        7D+1        0.00000  -0.00193   0.00000  -0.00384   0.00003
  15        7D-1       -0.00051   0.00000  -0.00084  -0.00000  -0.00000
  16        7D+2        0.00000  -0.00366  -0.00000   0.00007   0.00391
  17        7D-2        0.00315  -0.00000   0.00479   0.00000  -0.00000
  18        8D 0        0.00000  -0.00377  -0.00000   0.00074   0.00109
  19        8D+1       -0.00000   0.00120   0.00000  -0.00283  -0.00091
  20        8D-1        0.00111   0.00000  -0.00107  -0.00000   0.00000
  21        8D+2        0.00000  -0.00525  -0.00000   0.00176  -0.00766
  22        8D-2       -0.00311  -0.00000   0.00547   0.00000   0.00003
  23 2   Ti 1S          0.00000  -0.00003   0.00000  -0.00077  -0.00443
  24        2S         -0.00000  -0.00494  -0.00000   0.00307  -0.00247
  25        3S         -0.00000  -0.00185  -0.00000   0.00168  -0.04017
  26        4PX        -0.00004   0.55338   0.00006  -0.14107   0.00192
  27        4PY         0.95246   0.00014  -0.28577   0.00004  -0.00000
  28        4PZ         0.00016  -0.22627  -0.00007   0.01223   0.00052
  29        5PX         0.00000   0.00110  -0.00000  -0.00103   0.02649
  30        5PY         0.00765   0.00000  -0.01187   0.00000  -0.00000
  31        5PZ         0.00000  -0.00024  -0.00000   0.00075  -0.00449
  32        6PX        -0.00000   0.00012   0.00000   0.00019  -0.00247
  33        6PY        -0.00284   0.00000   0.00562  -0.00000   0.00001
  34        6PZ        -0.00000  -0.00026   0.00000   0.00148  -0.00080
  35        7D 0        0.00000  -0.00057  -0.00000  -0.00005  -0.00040
  36        7D+1       -0.00000   0.00235  -0.00000  -0.00154  -0.00021
  37        7D-1        0.00371   0.00000  -0.00080   0.00000   0.00000
  38        7D+2        0.00000   0.00269   0.00000  -0.00137   0.00084
  39        7D-2       -0.00210   0.00000  -0.00120   0.00000  -0.00000
  40        8D 0       -0.00000   0.00155   0.00000   0.00095   0.00189
  41        8D+1        0.00000   0.00018   0.00000  -0.00244   0.00226
  42        8D-1        0.00058  -0.00000  -0.00148   0.00000   0.00000
  43        8D+2       -0.00000   0.00516   0.00000  -0.00257  -0.00326
  44        8D-2       -0.00149  -0.00000   0.00521  -0.00000   0.00000
  45 3   O  1S          0.01346  -0.00339   0.00956   0.00210  -0.00156
  46        2S         -0.03005   0.00681  -0.02109  -0.00452   0.00397
  47        3S         -0.01890   0.00491  -0.01243  -0.00252   0.00125
  48        4PX        -0.00992  -0.01824   0.02249   0.00660  -0.00045
  49        4PY        -0.01404   0.00471  -0.01001  -0.00292   0.00104
  50        4PZ         0.00146   0.00376  -0.00342   0.00476   0.00005
  51        5PX         0.00291   0.00748  -0.00547  -0.00221   0.00142
  52        5PY         0.00368   0.00100   0.00214  -0.00030   0.00135
  53        5PZ         0.00010  -0.00101   0.00042   0.00093   0.00021
  54 4   O  1S         -0.01346  -0.00338  -0.00955   0.00210  -0.00156
  55        2S          0.03005   0.00680   0.02109  -0.00453   0.00398
  56        3S          0.01890   0.00491   0.01243  -0.00253   0.00123
  57        4PX         0.00993  -0.01822  -0.02250   0.00661  -0.00045
  58        4PY        -0.01404  -0.00470  -0.01001   0.00292  -0.00104
  59        4PZ        -0.00146   0.00376   0.00342   0.00476   0.00005
  60        5PX        -0.00291   0.00747   0.00547  -0.00221   0.00143
  61        5PY         0.00368  -0.00100   0.00214   0.00030  -0.00134
  62        5PZ        -0.00010  -0.00101  -0.00042   0.00093   0.00020
  63 5   O  1S          0.00000   0.00525   0.00000  -0.01054  -0.01240
  64        2S         -0.00000  -0.01153  -0.00001   0.02309   0.02486
  65        3S         -0.00000  -0.00565  -0.00000   0.01577   0.02681
  66        4PX        -0.00000  -0.01005  -0.00000   0.01890  -0.00238
  67        4PY         0.00129  -0.00000   0.00450   0.00001  -0.00000
  68        4PZ         0.00000   0.00776   0.00000  -0.01128  -0.00742
  69        5PX        -0.00000   0.00443   0.00000  -0.00407   0.00230
  70        5PY        -0.00022   0.00000   0.00100  -0.00000  -0.00001
  71        5PZ        -0.00000   0.00083   0.00000   0.00203  -0.00117
  72 6   O  1S         -0.00000   0.01026   0.00000   0.01016  -0.01184
  73        2S          0.00000  -0.02223  -0.00001  -0.02239   0.02362
  74        3S          0.00000  -0.01365  -0.00000  -0.01451   0.02633
  75        4PX         0.00000  -0.01730  -0.00000  -0.01722  -0.00224
  76        4PY         0.00146   0.00000   0.00548   0.00000  -0.00000
  77        4PZ         0.00000  -0.01389  -0.00000  -0.01028   0.00683
  78        5PX        -0.00000   0.00625   0.00000   0.00340   0.00143
  79        5PY         0.00053  -0.00000   0.00032  -0.00000  -0.00001
  80        5PZ        -0.00000   0.00004   0.00000   0.00248   0.00190
  81 7   O  1S          0.00000  -0.00329  -0.00000   0.00210   0.00014
  82        2S         -0.00000   0.00754   0.00000  -0.00476   0.00047
  83        3S         -0.00000   0.00181  -0.00000  -0.00115  -0.00259
  84        4PX        -0.00000   0.00248   0.00000   0.00051  -0.00004
  85        4PY         0.01021   0.00000  -0.00320  -0.00000   0.00000
  86        4PZ         0.00000  -0.00804  -0.00000   0.00384  -0.00037
  87        5PX         0.00000   0.00061   0.00000   0.00105   0.00061
  88        5PY         0.00043  -0.00000   0.00058   0.00000  -0.00000
  89        5PZ         0.00000   0.00077  -0.00000  -0.00160   0.00200
  90 8   Ti 1S          0.00000  -0.00373   0.00000   0.00061   0.05624
  91        2S         -0.00000   0.00620   0.00000  -0.00072  -0.09011
  92        3S          0.00000  -0.00012  -0.00001  -0.00137   0.03422
  93        4PX        -0.00001   0.19643   0.00004  -0.02062   0.09037
  94        4PY        -0.00650   0.00005  -0.01708   0.00002  -0.00057
  95        4PZ         0.00000  -0.01737  -0.00001  -0.07694   0.00223
  96        5PX         0.00000  -0.00015  -0.00000  -0.00054   0.02331
  97        5PY         0.00206  -0.00000  -0.00089   0.00000   0.00004
  98        5PZ         0.00000  -0.00174  -0.00000  -0.00856   0.00136
  99        6PX         0.00000  -0.00018  -0.00000   0.00016  -0.00232
 100        6PY        -0.00115   0.00000   0.00185  -0.00000   0.00001
 101        6PZ        -0.00000   0.00095   0.00000   0.00436   0.00024
 102        7D 0        0.00000   0.00241   0.00000  -0.00032  -0.03557
 103        7D+1       -0.00000   0.00021   0.00000   0.00120   0.00140
 104        7D-1        0.00001  -0.00000  -0.00002   0.00000   0.00001
 105        7D+2        0.00000  -0.00133  -0.00000   0.00022  -0.02617
 106        7D-2        0.00006  -0.00000   0.00065  -0.00000  -0.00012
 107        8D 0       -0.00000   0.00577  -0.00000  -0.00081  -0.00602
 108        8D+1        0.00000  -0.00091   0.00000  -0.00401   0.00084
 109        8D-1        0.00010  -0.00000  -0.00008   0.00000   0.00000
 110        8D+2        0.00000   0.00055  -0.00000  -0.00065   0.00342
 111        8D-2        0.00109  -0.00000   0.00563   0.00000   0.00004
 112 9   O  1S         -0.00013   0.00218  -0.00031  -0.00025  -0.16447
 113        2S          0.00022  -0.00528   0.00112   0.00068   0.35041
 114        3S          0.00003  -0.00132  -0.00186  -0.00009   0.32241
 115        4PX         0.00004  -0.00098   0.00008   0.00016  -0.03845
 116        4PY         0.00014  -0.00373   0.00048   0.00042  -0.05225
 117        4PZ        -0.00000  -0.00022   0.00002  -0.00063  -0.00118
 118        5PX         0.00046   0.00284   0.00105  -0.00060   0.00076
 119        5PY        -0.00001   0.00295  -0.00133  -0.00031   0.00263
 120        5PZ         0.00004   0.00019  -0.00009   0.00027   0.00000
 121 10  H  1S         -0.00003  -0.00010   0.00026   0.00003   0.11772
 122        2S          0.00054   0.00343  -0.00097  -0.00053   0.02133
 123 11  O  1S          0.00013   0.00218   0.00031  -0.00025  -0.16539
 124        2S         -0.00022  -0.00527  -0.00112   0.00068   0.35238
 125        3S         -0.00003  -0.00131   0.00185  -0.00009   0.32427
 126        4PX        -0.00004  -0.00097  -0.00008   0.00016  -0.03810
 127        4PY         0.00014   0.00373   0.00049  -0.00042   0.05300
 128        4PZ         0.00000  -0.00022  -0.00002  -0.00063  -0.00110
 129        5PX        -0.00046   0.00282  -0.00106  -0.00059   0.00085
 130        5PY        -0.00000  -0.00295  -0.00134   0.00031  -0.00265
 131        5PZ        -0.00004   0.00019   0.00008   0.00027   0.00001
 132 12  H  1S          0.00004  -0.00011  -0.00026   0.00003   0.11840
 133        2S         -0.00054   0.00342   0.00098  -0.00053   0.02148
                          21        22        23        24        25
                           O         O         O         O         O
     Eigenvalues --    -0.94434  -0.88342  -0.86744  -0.86118  -0.86111
   1 1   Ti 1S          0.00001   0.09930  -0.00192  -0.01612   0.00093
   2        2S         -0.00004  -0.13999   0.00294   0.02250  -0.00129
   3        3S         -0.00005   0.07066   0.01100  -0.01582   0.00093
   4        4PX         0.00005   0.02303   0.09387   0.22070  -0.01264
   5        4PY        -0.00075   0.00002  -0.00000  -0.00891  -0.15540
   6        4PZ         0.00001   0.02512   0.12502  -0.06473   0.00374
   7        5PX         0.00019  -0.00597   0.03625   0.05270  -0.00304
   8        5PY         0.00548   0.00000   0.00000   0.00146   0.02562
   9        5PZ        -0.00001  -0.00515  -0.02751   0.00413  -0.00024
  10        6PX         0.00003  -0.00119   0.01620   0.01121  -0.00064
  11        6PY         0.00466   0.00000  -0.00001  -0.00004  -0.00052
  12        6PZ        -0.00000  -0.00198   0.00120   0.00124  -0.00007
  13        7D 0       -0.00000  -0.01959   0.01778   0.03902  -0.00224
  14        7D+1        0.00000  -0.00542   0.07424  -0.01427   0.00085
  15        7D-1        0.00003  -0.00001  -0.00000  -0.00072  -0.01209
  16        7D+2        0.00002   0.03948   0.00809   0.01724  -0.00099
  17        7D-2       -0.00027  -0.00000  -0.00005   0.00475   0.08243
  18        8D 0        0.00001  -0.01017   0.00654   0.01472  -0.00085
  19        8D+1       -0.00000  -0.00913  -0.00250  -0.00185   0.00011
  20        8D-1       -0.00005  -0.00001  -0.00000  -0.00004  -0.00065
  21        8D+2       -0.00002   0.02622   0.00310   0.00501  -0.00028
  22        8D-2       -0.00649   0.00001   0.00000  -0.00027  -0.00466
  23 2   Ti 1S         -0.00001   0.03072  -0.02143  -0.05304   0.00305
  24        2S         -0.00001  -0.06364   0.02964   0.07947  -0.00457
  25        3S         -0.00011  -0.05449  -0.03714  -0.02311   0.00132
  26        4PX         0.00001   0.09054  -0.03835  -0.09518   0.00546
  27        4PY        -0.00000   0.00001   0.00003  -0.00732  -0.12743
  28        4PZ         0.00000  -0.02477   0.01337   0.04011  -0.00232
  29        5PX         0.00007   0.03190   0.03021   0.03978  -0.00228
  30        5PY        -0.00096  -0.00000  -0.00001   0.00121   0.02103
  31        5PZ        -0.00001   0.00018   0.00422  -0.01200   0.00069
  32        6PX        -0.00001   0.00027  -0.00350  -0.00727   0.00042
  33        6PY        -0.00167  -0.00000   0.00000  -0.00033  -0.00584
  34        6PZ        -0.00000  -0.00162  -0.00291   0.00055  -0.00003
  35        7D 0       -0.00000  -0.02070   0.00835   0.02064  -0.00118
  36        7D+1       -0.00000  -0.00280  -0.00053  -0.00211   0.00012
  37        7D-1       -0.00002   0.00000  -0.00000   0.00056   0.00982
  38        7D+2        0.00000   0.01152  -0.00416  -0.01005   0.00058
  39        7D-2        0.00012   0.00000   0.00002  -0.00401  -0.06977
  40        8D 0        0.00001   0.00089   0.00801   0.01041  -0.00060
  41        8D+1        0.00001   0.00354  -0.00410   0.00339  -0.00020
  42        8D-1       -0.00024  -0.00000  -0.00000   0.00009   0.00152
  43        8D+2       -0.00001  -0.01253  -0.00548  -0.00357   0.00020
  44        8D-2        0.00030   0.00000   0.00000  -0.00035  -0.00611
  45 3   O  1S         -0.00008  -0.10315   0.04758   0.13302   0.16525
  46        2S          0.00061   0.21525  -0.09887  -0.27615  -0.34195
  47        3S         -0.00232   0.21555  -0.10274  -0.28848  -0.37302
  48        4PX         0.00010  -0.00362   0.00060  -0.00206   0.00242
  49        4PY         0.00011   0.04165  -0.01631  -0.04145  -0.05160
  50        4PZ         0.00003   0.00011   0.00354   0.00015   0.00042
  51        5PX        -0.00018  -0.00234   0.00005   0.00103   0.00060
  52        5PY        -0.00080   0.01435  -0.00951  -0.02703  -0.03520
  53        5PZ        -0.00034   0.00110   0.00179   0.00045   0.00021
  54 4   O  1S          0.00006  -0.10313   0.04768   0.11322  -0.17938
  55        2S         -0.00057   0.21521  -0.09907  -0.23517   0.37129
  56        3S          0.00233   0.21550  -0.10295  -0.24387   0.40357
  57        4PX        -0.00011  -0.00362   0.00060  -0.00232  -0.00216
  58        4PY         0.00010  -0.04164   0.01635   0.03527  -0.05600
  59        4PZ        -0.00003   0.00010   0.00354   0.00011  -0.00044
  60        5PX         0.00019  -0.00234   0.00005   0.00096  -0.00072
  61        5PY        -0.00080  -0.01435   0.00953   0.02282  -0.03806
  62        5PZ         0.00034   0.00110   0.00179   0.00043  -0.00027
  63 5   O  1S         -0.00004  -0.13199   0.12286  -0.15988   0.00921
  64        2S          0.00009   0.27667  -0.25418   0.33162  -0.01911
  65        3S          0.00008   0.27252  -0.27947   0.35040  -0.02020
  66        4PX        -0.00001   0.00258  -0.00021  -0.00644   0.00037
  67        4PY         0.00226   0.00002  -0.00002  -0.00021  -0.00401
  68        4PZ        -0.00003  -0.05182   0.04019  -0.04901   0.00282
  69        5PX         0.00000  -0.00142  -0.00011   0.00035  -0.00002
  70        5PY         0.00104   0.00001  -0.00001  -0.00006  -0.00137
  71        5PZ        -0.00000  -0.02067   0.02666  -0.03467   0.00200
  72 6   O  1S         -0.00005  -0.13207  -0.19890  -0.03507   0.00195
  73        2S          0.00010   0.27497   0.41201   0.07376  -0.00411
  74        3S          0.00010   0.28036   0.44527   0.06966  -0.00386
  75        4PX        -0.00001   0.00081  -0.00176  -0.00254   0.00014
  76        4PY         0.00200  -0.00002  -0.00002  -0.00020  -0.00343
  77        4PZ         0.00003   0.05129   0.06373   0.01029  -0.00057
  78        5PX         0.00000   0.00128  -0.00276  -0.00026   0.00001
  79        5PY         0.00097  -0.00001  -0.00001  -0.00007  -0.00112
  80        5PZ         0.00000   0.02325   0.04438   0.00758  -0.00042
  81 7   O  1S          0.00000  -0.01334   0.00964   0.02840  -0.00164
  82        2S          0.00000   0.02975  -0.02008  -0.06082   0.00350
  83        3S         -0.00001   0.02209  -0.02065  -0.05795   0.00334
  84        4PX        -0.00000  -0.00177   0.00125   0.00426  -0.00025
  85        4PY        -0.00002   0.00000   0.00000  -0.00014  -0.00238
  86        4PZ        -0.00000  -0.00704   0.00422   0.01114  -0.00064
  87        5PX         0.00000   0.00055   0.00187   0.00009  -0.00000
  88        5PY         0.00015   0.00000   0.00000  -0.00009  -0.00156
  89        5PZ         0.00001   0.00289  -0.00178  -0.00065   0.00004
  90 8   Ti 1S          0.00016   0.04218   0.01384   0.04373  -0.00251
  91        2S         -0.00025  -0.07361  -0.01753  -0.05496   0.00315
  92        3S          0.00012  -0.06187   0.02894   0.04666  -0.00270
  93        4PX         0.00033  -0.14043  -0.03459  -0.09841   0.00564
  94        4PY         0.17016   0.00001  -0.00005   0.00011   0.00138
  95        4PZ         0.00004  -0.00681   0.13112  -0.05659   0.00329
  96        5PX         0.00008  -0.03140   0.02374   0.05849  -0.00337
  97        5PY        -0.01345  -0.00000   0.00002  -0.00067  -0.01191
  98        5PZ         0.00000  -0.00186  -0.01765   0.01010  -0.00059
  99        6PX         0.00000  -0.00066  -0.00432  -0.00717   0.00041
 100        6PY        -0.00566  -0.00000   0.00000   0.00010   0.00142
 101        6PZ         0.00000   0.00158   0.00501  -0.00290   0.00017
 102        7D 0       -0.00009   0.00964   0.00114   0.01163  -0.00067
 103        7D+1        0.00001   0.00273  -0.07377   0.03119  -0.00181
 104        7D-1        0.00158  -0.00002   0.00000  -0.00002  -0.00002
 105        7D+2        0.00000   0.03794   0.00934   0.02485  -0.00142
 106        7D-2        0.05417  -0.00001   0.00002  -0.00003  -0.00025
 107        8D 0       -0.00002   0.00919  -0.00059  -0.00017   0.00001
 108        8D+1        0.00000  -0.00136  -0.00303   0.00246  -0.00014
 109        8D-1       -0.00005  -0.00001   0.00000  -0.00001  -0.00011
 110        8D+2        0.00005  -0.00573   0.00608   0.01914  -0.00110
 111        8D-2       -0.00636  -0.00000   0.00000  -0.00059  -0.01013
 112 9   O  1S         -0.16538   0.01048   0.00200   0.00576  -0.00044
 113        2S          0.35113  -0.02137  -0.00450  -0.01303   0.00078
 114        3S          0.33200  -0.02529  -0.00348  -0.00912   0.00329
 115        4PX        -0.04625   0.00406   0.00081   0.00268   0.00012
 116        4PY        -0.05870   0.01074   0.00216   0.00713  -0.00059
 117        4PZ        -0.00140   0.00004   0.00247  -0.00095   0.00006
 118        5PX         0.00239  -0.00410  -0.00006  -0.00081  -0.00252
 119        5PY         0.01118  -0.00813  -0.00096  -0.00439   0.00104
 120        5PZ         0.00012  -0.00016   0.00197  -0.00089   0.00003
 121 10  H  1S          0.12202  -0.01080  -0.00213  -0.00665   0.00060
 122        2S          0.02692  -0.00673  -0.00085  -0.00323  -0.00218
 123 11  O  1S          0.16446   0.01046   0.00200   0.00576  -0.00022
 124        2S         -0.34918  -0.02132  -0.00448  -0.01302   0.00071
 125        3S         -0.33016  -0.02524  -0.00345  -0.00938  -0.00222
 126        4PX         0.04541   0.00400   0.00079   0.00262  -0.00042
 127        4PY        -0.05885  -0.01076  -0.00216  -0.00717   0.00022
 128        4PZ         0.00131   0.00003   0.00247  -0.00096   0.00005
 129        5PX        -0.00242  -0.00408  -0.00007  -0.00055   0.00259
 130        5PY         0.01113   0.00814   0.00097   0.00452   0.00053
 131        5PZ        -0.00013  -0.00015   0.00197  -0.00088   0.00007
 132 12  H  1S         -0.12137  -0.01078  -0.00212  -0.00667   0.00016
 133        2S         -0.02678  -0.00671  -0.00088  -0.00304   0.00253
                          26        27        28        29        30
                           O         O         O         O         O
     Eigenvalues --    -0.83131  -0.49468  -0.48307  -0.36603  -0.34813
   1 1   Ti 1S         -0.01451   0.00431  -0.00001   0.13377   0.02463
   2        2S          0.00954   0.00258  -0.00001  -0.09659  -0.01712
   3        3S         -0.01812  -0.01994  -0.00024   0.09429  -0.00337
   4        4PX         0.02730  -0.00323   0.00001   0.02268  -0.03411
   5        4PY         0.00000  -0.00002  -0.00609  -0.00001  -0.00004
   6        4PZ        -0.00337   0.00030  -0.00001  -0.00668  -0.04429
   7        5PX        -0.10078  -0.09262   0.00040  -0.00521  -0.04166
   8        5PY         0.00000   0.00000   0.00586  -0.00000  -0.00001
   9        5PZ        -0.00012   0.00703  -0.00001   0.01276   0.01106
  10        6PX        -0.02021  -0.00825   0.00004   0.00639  -0.00506
  11        6PY         0.00000  -0.00001  -0.02042  -0.00002   0.00002
  12        6PZ         0.00182   0.00180  -0.00002  -0.00994  -0.01430
  13        7D 0        0.00682   0.00649  -0.00002  -0.12425   0.05546
  14        7D+1        0.00090   0.00014  -0.00001  -0.04119  -0.27147
  15        7D-1       -0.00000  -0.00000  -0.00007   0.00001  -0.00005
  16        7D+2        0.00163  -0.00166   0.00000   0.20860   0.02111
  17        7D-2       -0.00000  -0.00003  -0.01089  -0.00001   0.00047
  18        8D 0        0.01354   0.00034   0.00001  -0.07247   0.02144
  19        8D+1        0.00495   0.00010  -0.00000  -0.00952  -0.05900
  20        8D-1       -0.00000  -0.00000   0.00067   0.00002  -0.00001
[...]
  55         V                -0.002879          1.703210
  56         V                 0.001173          2.022240
  57         V                 0.012321          1.479481
  58         V                 0.015729          1.783440
  59         V                 0.017452          1.619248
  60         V                 0.019132          3.251240
  61         V                 0.020567          2.423288
  62         V                 0.022258          1.227710
  63         V                 0.029139          1.667683
  64         V                 0.030236          1.202981
  65         V                 0.033208          2.417324
  66         V                 0.037319          3.043834
  67         V                 0.042410          2.134998
  68         V                 0.044899          0.341098
  69         V                 0.050705          1.337999
  70         V                 0.051903          1.056625
  71         V                 0.064174          3.856599
  72         V                 0.065384          4.014233
  73         V                 0.083442          1.009763
  74         V                 0.105637          0.897552
  75         V                 0.134724          0.963619
  76         V                 0.136630          0.927761
  77         V                 0.152883          0.995684
  78         V                 0.153269          0.950177
  79         V                 0.170258          1.159958
  80         V                 0.176766          1.321611
  81         V                 0.179990          1.352593
  82         V                 0.189392          1.250224
  83         V                 0.204190          1.183797
  84         V                 0.216336          1.311499
  85         V                 0.234485          1.258347
  86         V                 0.328122          1.458650
  87         V                 0.337515          1.542317
  88         V                 0.345407          1.536950
  89         V                 0.355901          1.373313
  90         V                 0.362756          1.449983
  91         V                 0.364420          1.560657
  92         V                 0.367650          1.839405
  93         V                 0.384266          1.345782
  94         V                 0.386485          1.565273
  95         V                 0.400369          1.506151
  96         V                 0.400539          1.624140
  97         V                 0.450044          2.143035
  98         V                 0.471186          1.762041
  99         V                 0.518077          1.627128
 100         V                 0.530402          1.729633
 101         V                 0.640885          2.080200
 102         V                 0.703204          2.899817
 103         V                 0.744145          2.847736
 104         V                 0.762079          3.061499
 105         V                 0.769028          2.902795
 106         V                 0.769721          2.912412
 107         V                 0.805942          2.892254
 108         V                 0.831170          3.051702
 109         V                 0.834414          2.919105
 110         V                 0.854024          3.248223
 111         V                 0.869558          2.954435
 112         V                 0.871098          2.862427
 113         V                 0.895879          2.960077
 114         V                 0.906085          3.036152
 115         V                 0.908932          3.155418
 116         V                 0.949100          3.041844
 117         V                 0.967023          3.012623
 118         V                 0.984201          3.020304
 119         V                 0.987183          3.287887
 120         V                 1.031262          3.277215
 121         V                 1.067912          3.009232
 122         V                 1.072449          2.981241
 123         V                 1.120910          3.384675
 124         V                 1.380650          3.799480
 125         V                 1.506563          3.987502
 126         V                 1.521441          4.068427
 127         V                 1.572580          4.386241
 128         V                 1.630495          4.294196
 129         V                 1.652263          4.216531
 130         V                 1.736635          4.229297
 131         V                 3.782531          2.431314
 132         V                11.075854          3.020080
 133         V                16.219440          4.132574
 Orbital energies and kinetic energies (beta):
                                 1                 2
   1         O               -19.118970         29.124529
   2         O               -19.118936         29.124535
   3         O               -19.094844         29.126066
   4         O               -19.092237         29.126065
   5         O               -19.089789         29.126104
   6         O               -19.089782         29.126095
   7         O               -19.080511         29.127270
   8         O                -2.403719          1.342699
   9         O                -2.378889          1.338021
  10         O                -2.361512          1.338208
  11         O                -1.535154          2.331174
  12         O                -1.533037          2.368593
  13         O                -1.519018          2.331966
  14         O                -1.513462          2.377815
  15         O                -1.508283          2.348598
  16         O                -1.494478          2.402252
  17         O                -1.491322          2.374355
  18         O                -1.478697          2.373870
  19         O                -1.470806          2.372816
  20         O                -0.950725          2.765808
  21         O                -0.944509          2.807665
  22         O                -0.884542          2.901610
  23         O                -0.868263          3.062612
  24         O                -0.862595          3.067721
  25         O                -0.862192          3.055608
  26         O                -0.832453          3.125256
  27         O                -0.493560          2.147919
  28         O                -0.482600          2.288737
  29         O                -0.363011          2.208433
  30         O                -0.348368          2.404926
  31         O                -0.345371          2.305228
  32         O                -0.337802          2.286543
  33         O                -0.335494          2.151545
  34         O                -0.331382          2.157022
  35         O                -0.328577          2.214376
  36         O                -0.326197          2.236288
  37         O                -0.322498          2.279803
  38         O                -0.314616          2.180890
  39         O                -0.310412          2.147375
  40         O                -0.308264          2.221467
  41         O                -0.295771          2.322892
  42         O                -0.291096          2.493432
  43         O                -0.280606          2.390627
  44         O                -0.280076          2.248638
  45         O                -0.271298          2.416980
  46         O                -0.260862          2.358516
  47         O                -0.253599          2.356192
  48         V                -0.029504          2.861019
  49         V                -0.025225          3.420939
  50         V                -0.023228          2.150042
  51         V                -0.013358          2.738331
  52         V                -0.009382          3.398413
  53         V                -0.004680          3.179121
  54         V                -0.001656          0.892735
  55         V                -0.001048          1.369879
  56         V                 0.010218          2.088641
  57         V                 0.015796          1.419398
  58         V                 0.018835          1.254952
  59         V                 0.022110          1.054553
  60         V                 0.022186          3.410620
  61         V                 0.023271          2.033265
  62         V                 0.031237          2.099918
  63         V                 0.031380          1.573837
  64         V                 0.035457          2.405931
  65         V                 0.038215          2.223740
  66         V                 0.040691          2.585654
  67         V                 0.045862          0.786862
  68         V                 0.050365          1.006042
  69         V                 0.052892          1.893731
  70         V                 0.062517          2.905797
  71         V                 0.071108          3.881245
  72         V                 0.072847          3.991526
  73         V                 0.085214          1.220731
  74         V                 0.107006          0.956432
  75         V                 0.135599          0.983404
  76         V                 0.138691          0.950301
  77         V                 0.153125          0.999329
  78         V                 0.154799          1.022069
  79         V                 0.171863          1.120008
  80         V                 0.178758          1.414160
  81         V                 0.180533          1.372656
  82         V                 0.190517          1.273548
  83         V                 0.205642          1.225272
  84         V                 0.216833          1.329782
  85         V                 0.240054          1.376167
  86         V                 0.334325          1.532779
  87         V                 0.337561          1.549584
  88         V                 0.351922          1.643604
  89         V                 0.357306          1.367427
  90         V                 0.363796          1.474170
  91         V                 0.364655          1.549148
  92         V                 0.369670          1.862199
  93         V                 0.387016          1.586210
  94         V                 0.391495          1.461406
  95         V                 0.400971          1.523506
  96         V                 0.403237          1.638266
  97         V                 0.451979          2.154851
  98         V                 0.473510          1.796858
  99         V                 0.522225          1.643000
 100         V                 0.532276          1.736580
 101         V                 0.642743          2.094491
 102         V                 0.704285          2.899946
 103         V                 0.744227          2.846298
 104         V                 0.762894          3.060185
 105         V                 0.768695          2.896430
 106         V                 0.769606          2.913959
 107         V                 0.805507          2.888892
 108         V                 0.831320          3.045708
 109         V                 0.834248          2.912639
 110         V                 0.854395          3.239499
 111         V                 0.869214          2.947441
 112         V                 0.870332          2.856395
 113         V                 0.895714          2.959067
 114         V                 0.906193          3.036818
 115         V                 0.909015          3.153671
 116         V                 0.949728          3.041596
 117         V                 0.966844          3.009308
 118         V                 0.984519          3.022201
 119         V                 0.987434          3.287922
 120         V                 1.030970          3.269446
 121         V                 1.067448          3.007588
 122         V                 1.072991          2.980778
 123         V                 1.121202          3.379580
 124         V                 1.380131          3.799132
 125         V                 1.506292          3.985211
 126         V                 1.521230          4.068080
 127         V                 1.572679          4.385396
 128         V                 1.630303          4.291464
 129         V                 1.652493          4.214490
 130         V                 1.736777          4.227711
 131         V                 3.780420          2.431999
 132         V                11.066642          3.020241
 133         V                16.205126          4.132561
 Total kinetic energy from orbitals= 5.992404211974D+02
                          Isotropic Fermi Contact Couplings
        Atom                 a.u.       MegaHertz       Gauss      10(-4) cm-1
     1  Ti(47)            -0.00000       0.00025       0.00009       0.00008
     2  Ti(47)            -0.00000       0.00012       0.00004       0.00004
     3  O(17)             -0.00404       2.44898       0.87386       0.81689
     4  O(17)             -0.00404       2.45033       0.87434       0.81734
     5  O(17)              0.01369      -8.29940      -2.96143      -2.76838
     6  O(17)              0.01899     -11.51300      -4.10812      -3.84032
     7  O(17)             -0.00499       3.02405       1.07906       1.00872
     8  Ti(47)            -0.00000       0.00000       0.00000       0.00000
     9  O(17)             -0.00284       1.72262       0.61467       0.57461
    10  H(1)               0.00072       3.20969       1.14530       1.07064
    11  O(17)             -0.00283       1.71817       0.61309       0.57312
    12  H(1)               0.00072       3.20790       1.14466       1.07004
 --------------------------------------------------------
       Center         ----  Spin Dipole Couplings  ----
                      3XX-RR        3YY-RR        3ZZ-RR
 --------------------------------------------------------
     1   Atom       -0.473540      0.135170      0.338370
     2   Atom       -0.066758      0.177124     -0.110365
     3   Atom       -0.062216      0.073407     -0.011191
     4   Atom       -0.062228      0.073485     -0.011257
     5   Atom       -0.126340     -0.003480      0.129820
     6   Atom       -0.118666      0.000547      0.118119
     7   Atom        0.015258     -0.011959     -0.003299
     8   Atom       -0.095795     -0.088621      0.184416
     9   Atom        0.005637      0.003080     -0.008717
    10   Atom        0.000533      0.000971     -0.001503
    11   Atom        0.005595      0.003157     -0.008752
    12   Atom        0.000534      0.000973     -0.001507
 --------------------------------------------------------
                        XY            XZ            YZ
 --------------------------------------------------------
     1   Atom       -0.000038     -0.004435     -0.000054
     2   Atom        0.000009     -0.192555      0.000011
     3   Atom        0.081331      0.044403     -0.026792
     4   Atom       -0.081300      0.044409      0.026885
     5   Atom        0.000036      0.041101      0.000062
     6   Atom        0.000074     -0.054516     -0.000051
     7   Atom       -0.000019      0.010527     -0.000002
     8   Atom       -0.000097     -0.009607     -0.000090
     9   Atom        0.010404      0.000766      0.000022
    10   Atom        0.002020      0.000021      0.000033
    11   Atom       -0.010357      0.000778     -0.000010
    12   Atom       -0.002021      0.000021     -0.000032
 --------------------------------------------------------


 ---------------------------------------------------------------------------------
              Anisotropic Spin Dipole Couplings in Principal Axis System
 ---------------------------------------------------------------------------------

       Atom             a.u.   MegaHertz   Gauss  10(-4) cm-1        Axes

              Baa    -0.4736    14.267     5.091     4.759  1.0000  0.0001  0.0055
     1 Ti(47) Bbb     0.1352    -4.072    -1.453    -1.358 -0.0001  1.0000  0.0003
              Bcc     0.3384   -10.195    -3.638    -3.401 -0.0055 -0.0003  1.0000
 
              Baa    -0.2823     8.506     3.035     2.837  0.6661 -0.0000  0.7458
     2 Ti(47) Bbb     0.1052    -3.170    -1.131    -1.057  0.7458  0.0000 -0.6661
              Bcc     0.1771    -5.336    -1.904    -1.780  0.0000  1.0000  0.0000
 
              Baa    -0.1239     8.967     3.200     2.991  0.8193 -0.3942 -0.4164
     3 O(17)  Bbb     0.0122    -0.880    -0.314    -0.294  0.3981 -0.1316  0.9079
              Bcc     0.1118    -8.087    -2.885    -2.697  0.4127  0.9096 -0.0492
 
              Baa    -0.1239     8.968     3.200     2.991  0.8191  0.3941 -0.4168
     4 O(17)  Bbb     0.0121    -0.878    -0.313    -0.293  0.3989  0.1309  0.9076
              Bcc     0.1118    -8.090    -2.887    -2.699 -0.4122  0.9097  0.0500
 
              Baa    -0.1328     9.607     3.428     3.205  0.9880 -0.0002 -0.1546
     5 O(17)  Bbb    -0.0035     0.252     0.090     0.084  0.0001  1.0000 -0.0005
              Bcc     0.1363    -9.859    -3.518    -3.289  0.1546  0.0005  0.9880
 
              Baa    -0.1306     9.451     3.372     3.153  0.9768 -0.0005  0.2141
     6 O(17)  Bbb     0.0005    -0.040    -0.014    -0.013  0.0003  1.0000  0.0006
              Bcc     0.1301    -9.412    -3.358    -3.139 -0.2141 -0.0005  0.9768
 
              Baa    -0.0120     0.865     0.309     0.289  0.0012  1.0000 -0.0013
     7 O(17)  Bbb    -0.0081     0.583     0.208     0.194 -0.4116  0.0017  0.9114
              Bcc     0.0200    -1.448    -0.517    -0.483  0.9114 -0.0006  0.4116
 
              Baa    -0.0961     2.896     1.033     0.966  0.9993  0.0134  0.0342
     8 Ti(47) Bbb    -0.0886     2.670     0.953     0.891 -0.0134  0.9999 -0.0001
              Bcc     0.1847    -5.566    -1.986    -1.857 -0.0342 -0.0003  0.9994
 
              Baa    -0.0088     0.638     0.228     0.213 -0.1370  0.1180  0.9835
     9 O(17)  Bbb    -0.0060     0.437     0.156     0.146 -0.6481  0.7402 -0.1791
              Bcc     0.0149    -1.075    -0.384    -0.359  0.7491  0.6619  0.0250
 
              Baa    -0.0015    -0.802    -0.286    -0.268  0.0138 -0.0244  0.9996
    10 H(1)   Bbb    -0.0013    -0.683    -0.244    -0.228  0.7442 -0.6674 -0.0266
              Bcc     0.0028     1.485     0.530     0.495  0.6678  0.7443  0.0089
 
              Baa    -0.0089     0.641     0.229     0.214 -0.1369 -0.1172  0.9836
    11 O(17)  Bbb    -0.0060     0.431     0.154     0.144  0.6500  0.7386  0.1785
              Bcc     0.0148    -1.072    -0.383    -0.358  0.7475 -0.6638  0.0249
 
              Baa    -0.0015    -0.804    -0.287    -0.268  0.0129  0.0233  0.9996
    12 H(1)   Bbb    -0.0013    -0.683    -0.244    -0.228  0.7443  0.6674 -0.0251
              Bcc     0.0028     1.487     0.531     0.496 -0.6678  0.7443 -0.0087
 

 ---------------------------------------------------------------------------------


 Test job not archived.
 1\1\GINC-POP-OS\SP\UB3LYP\LANL2DZ\H2O7Ti3(1-,2)\RHEINHEIMER\07-Jun-202
 1\0\\#t B3LYP/LANL2DZ # SCRF=(Solvent=Water) # Gfinput IOP(6/7=3) Pop=
 hirshfeld Density Test # Units(Ang,Deg)\\3-tio2.pdb\\-1,2\Ti,0,-0.3244
 4,-0.00006,-0.05383\Ti,0,-3.0684,-0.00002,0.37802\O,0,-1.65718,-1.2322
 3,0.15453\O,0,-1.65723,1.23217,0.15427\O,0,1.1095,-0.00065,-1.27744\O,
 0,1.0367,0.00028,1.18443\O,0,-3.93873,-0.00023,-1.02618\Ti,0,2.45252,-
 0.00006,-0.02878\O,0,3.35891,-1.53277,-0.0025\H,0,3.90908,-2.32849,0.0
 1445\O,0,3.35749,1.53329,-0.00295\H,0,3.90206,2.33284,0.01316\\Version
 =ES64L-G16RevA.03\State=2-A\HF=-702.8316188\S2=0.762054\S2-1=0.\S2A=0.
 750093\RMSD=5.291e-09\Dipole=0.5963798,0.0047823,2.5828217\Quadrupole=
 1.2598493,2.1993065,-3.4591558,0.0042925,-19.4645002,-0.0069277\PG=C01
  [X(H2O7Ti3)]\\@


 TIME IS NATURE'S WAY OF MAKING SURE EVERYTHING
 DOESN'T HAPPEN AT ONCE.
                     - WOODY ALLEN
 Job cpu time:       0 days  0 hours 10 minutes 25.4 seconds.
 Elapsed time:       0 days  0 hours  1 minutes 31.4 seconds.
 File lengths (MBytes):  RWF=     58 Int=      0 D2E=      0 Chk=      3 Scr=      1
 Normal termination of Gaussian 16 at Mon Jun  7 17:27:48 2021.
