 Entering Gaussian System, Link 0=g16
 Input=w-3-tio2-p_mep.com
 Output=w-3-tio2-p_mep.log
 Initial command:
 /home/rheinheimer/Apps//g16/l1.exe "/home/rheinheimer/Apps/scrgauss/Gau-1688859.inp" -scrdir="/home/rheinheimer/Apps/scrgauss/"
 Entering Link 1 = /home/rheinheimer/Apps//g16/l1.exe PID=   1688861.
  
 Copyright (c) 1988,1990,1992,1993,1995,1998,2003,2009,2016,
            Gaussian, Inc.  All Rights Reserved.
  
 This is part of the Gaussian(R) 16 program.  It is based on
 the Gaussian(R) 09 system (copyright 2009, Gaussian, Inc.),
 the Gaussian(R) 03 system (copyright 2003, Gaussian, Inc.),
 the Gaussian(R) 98 system (copyright 1998, Gaussian, Inc.),
 the Gaussian(R) 94 system (copyright 1995, Gaussian, Inc.),
 the Gaussian 92(TM) system (copyright 1992, Gaussian, Inc.),
 the Gaussian 90(TM) system (copyright 1990, Gaussian, Inc.),
 the Gaussian 88(TM) system (copyright 1988, Gaussian, Inc.),
 the Gaussian 86(TM) system (copyright 1986, Carnegie Mellon
 University), and the Gaussian 82(TM) system (copyright 1983,
 Carnegie Mellon University). Gaussian is a federally registered
 trademark of Gaussian, Inc.
  
 This software contains proprietary and confidential information,
 including trade secrets, belonging to Gaussian, Inc.
  
 This software is provided under written license and may be
 used, copied, transmitted, or stored only in accord with that
 written license.
  
 The following legend is applicable only to US Government
 contracts under FAR:
  
                    RESTRICTED RIGHTS LEGEND
  
 Use, reproduction and disclosure by the US Government is
 subject to restrictions as set forth in subparagraphs (a)
 and (c) of the Commercial Computer Software - Restricted
 Rights clause in FAR 52.227-19.
  
 Gaussian, Inc.
 340 Quinnipiac St., Bldg. 40, Wallingford CT 06492
  
  
 ---------------------------------------------------------------
 Warning -- This program may not be used in any manner that
 competes with the business of Gaussian, Inc. or will provide
 assistance to any competitor of Gaussian, Inc.  The licensee
 of this program is prohibited from giving any competitor of
 Gaussian, Inc. access to this program.  By using this program,
 the user acknowledges that Gaussian, Inc. is engaged in the
 business of creating and licensing software in the field of
 computational chemistry and represents and warrants to the
 licensee that it is not a competitor of Gaussian, Inc. and that
 it will not use this program in any manner prohibited above.
 ---------------------------------------------------------------
  

 Cite this work as:
 Gaussian 16, Revision A.03,
 M. J. Frisch, G. W. Trucks, H. B. Schlegel, G. E. Scuseria, 
 M. A. Robb, J. R. Cheeseman, G. Scalmani, V. Barone, 
 G. A. Petersson, H. Nakatsuji, X. Li, M. Caricato, A. V. Marenich, 
 J. Bloino, B. G. Janesko, R. Gomperts, B. Mennucci, H. P. Hratchian, 
 J. V. Ortiz, A. F. Izmaylov, J. L. Sonnenberg, D. Williams-Young, 
 F. Ding, F. Lipparini, F. Egidi, J. Goings, B. Peng, A. Petrone, 
 T. Henderson, D. Ranasinghe, V. G. Zakrzewski, J. Gao, N. Rega, 
 G. Zheng, W. Liang, M. Hada, M. Ehara, K. Toyota, R. Fukuda, 
 J. Hasegawa, M. Ishida, T. Nakajima, Y. Honda, O. Kitao, H. Nakai, 
 T. Vreven, K. Throssell, J. A. Montgomery, Jr., J. E. Peralta, 
 F. Ogliaro, M. J. Bearpark, J. J. Heyd, E. N. Brothers, K. N. Kudin, 
 V. N. Staroverov, T. A. Keith, R. Kobayashi, J. Normand, 
 K. Raghavachari, A. P. Rendell, J. C. Burant, S. S. Iyengar, 
 J. Tomasi, M. Cossi, J. M. Millam, M. Klene, C. Adamo, R. Cammi, 
 J. W. Ochterski, R. L. Martin, K. Morokuma, O. Farkas, 
 J. B. Foresman, and D. J. Fox, Gaussian, Inc., Wallingford CT, 2016.
 
 ******************************************
 Gaussian 16:  ES64L-G16RevA.03 25-Dec-2016
                 7-Jun-2021 
 ******************************************
 %chk=w-3-tio2-p_mep.chk
 %nproc=8
 Will use up to    8 processors via shared memory.
 %Mem=4GB
 ----------------------------------------------------------------------
 #P B3LYP/LANL2DZ # SCRF=(Solvent=Water) # Pop=(Chelp, ReadRadii) # Gfi
 nput IOP(6/7=3) Density Test # Units(Ang,Deg)
 ----------------------------------------------------------------------
 1/30=1,38=1,172=1/1;
 2/12=2,17=6,18=5,40=1/2;
 3/5=6,6=3,11=2,24=10,25=1,30=1,70=2201,72=1,74=-5/1,2,3;
 4//1;
 5/5=2,38=5,53=1/2;
 6/7=3,8=2,9=2,10=2,15=8,20=102,22=-1,28=1/1,2;
 99/5=1,9=1/99;
 Leave Link    1 at Mon Jun  7 17:27:49 2021, MaxMem=   536870912 cpu:               1.8 elap:               0.3
 (Enter /home/rheinheimer/Apps//g16/l101.exe)
 -------------------
 Title Card Required
 -------------------
 Symbolic Z-matrix:
 Charge =  0 Multiplicity = 1
 Ti                   -0.32444  -0.00006  -0.05383 
 Ti                   -3.0684   -0.00002   0.37802 
 O                    -1.65718  -1.23223   0.15453 
 O                    -1.65723   1.23217   0.15427 
 O                     1.1095   -0.00065  -1.27744 
 O                     1.0367    0.00028   1.18443 
 O                    -3.93873  -0.00023  -1.02618 
 Ti                    2.45252  -0.00006  -0.02878 
 O                     3.35891  -1.53277  -0.0025 
 H                     3.90908  -2.32849   0.01445 
 O                     3.35749   1.53329  -0.00295 
 H                     3.90206   2.33284   0.01316 
 
 ITRead=  0  0  0  0  0  0  0  0  0  0  0  0
 MicOpt= -1 -1 -1 -1 -1 -1 -1 -1 -1 -1 -1 -1
 NAtoms=     12 NQM=       12 NQMF=       0 NMMI=      0 NMMIF=      0
                NMic=       0 NMicF=      0.
                    Isotopes and Nuclear Properties:
 (Nuclear quadrupole moments (NQMom) in fm**2, nuclear magnetic moments (NMagM)
  in nuclear magnetons)

  Atom         1           2           3           4           5           6           7           8           9          10
 IAtWgt=          48          48          16          16          16          16          16          48          16           1
 AtmWgt=  47.9479467  47.9479467  15.9949146  15.9949146  15.9949146  15.9949146  15.9949146  47.9479467  15.9949146   1.0078250
 NucSpn=           0           0           0           0           0           0           0           0           0           1
 AtZEff=  -0.0000000  -0.0000000  -0.0000000  -0.0000000  -0.0000000  -0.0000000  -0.0000000  -0.0000000  -0.0000000  -0.0000000
 NQMom=    0.0000000   0.0000000   0.0000000   0.0000000   0.0000000   0.0000000   0.0000000   0.0000000   0.0000000   0.0000000
 NMagM=    0.0000000   0.0000000   0.0000000   0.0000000   0.0000000   0.0000000   0.0000000   0.0000000   0.0000000   2.7928460
 AtZNuc=  22.0000000  22.0000000   8.0000000   8.0000000   8.0000000   8.0000000   8.0000000  22.0000000   8.0000000   1.0000000

  Atom        11          12
 IAtWgt=          16           1
 AtmWgt=  15.9949146   1.0078250
 NucSpn=           0           1
 AtZEff=  -0.0000000  -0.0000000
 NQMom=    0.0000000   0.0000000
 NMagM=    0.0000000   2.7928460
 AtZNuc=   8.0000000   1.0000000
 Leave Link  101 at Mon Jun  7 17:27:49 2021, MaxMem=   536870912 cpu:               2.3 elap:               0.3
 (Enter /home/rheinheimer/Apps//g16/l202.exe)
                          Input orientation:                          
 ---------------------------------------------------------------------
 Center     Atomic      Atomic             Coordinates (Angstroms)
 Number     Number       Type             X           Y           Z
 ---------------------------------------------------------------------
      1         22           0       -0.324440   -0.000060   -0.053830
      2         22           0       -3.068400   -0.000020    0.378020
      3          8           0       -1.657180   -1.232230    0.154530
      4          8           0       -1.657230    1.232170    0.154270
      5          8           0        1.109500   -0.000650   -1.277440
      6          8           0        1.036700    0.000280    1.184430
      7          8           0       -3.938730   -0.000230   -1.026180
      8         22           0        2.452520   -0.000060   -0.028780
      9          8           0        3.358910   -1.532770   -0.002500
     10          1           0        3.909080   -2.328490    0.014450
     11          8           0        3.357490    1.533290   -0.002950
     12          1           0        3.902060    2.332840    0.013160
 ---------------------------------------------------------------------
                    Distance matrix (angstroms):
                    1          2          3          4          5
     1  Ti   0.000000
     2  Ti   2.777735   0.000000
     3  O    1.826979   1.886751   0.000000
     4  O    1.827026   1.886732   2.464400   0.000000
     5  O    1.885048   4.493929   3.349902   3.350289   0.000000
     6  O    1.840106   4.183556   3.136362   3.136246   2.462946
     7  O    3.742801   1.652045   2.849100   2.849125   5.054479
     8  Ti   2.777073   5.535887   4.294354   4.294408   1.833809
     9  O    3.989850   6.618492   5.027538   5.729846   3.005447
    10  H    4.832074   7.364726   5.674915   6.609210   3.863349
    11  O    3.988779   6.617268   5.728858   5.026212   3.005122
    12  H    4.828065   7.359529   6.605669   5.668959   3.861245
                    6          7          8          9         10
     6  O    0.000000
     7  O    5.444419   0.000000
     8  Ti   1.864517   6.468608   0.000000
     9  O    3.025178   7.526762   1.780852   0.000000
    10  H    3.878478   8.251777   2.746820   0.967546   0.000000
    11  O    3.024245   7.525524   1.780674   3.066060   3.901013
    12  H    3.875951   8.246298   2.746880   3.903613   4.661335
                   11         12
    11  O    0.000000
    12  H    0.967521   0.000000
 Stoichiometry    H2O7Ti3
 Framework group  C1[X(H2O7Ti3)]
 Deg. of freedom    30
 Full point group                 C1      NOp   1
 Largest Abelian subgroup         C1      NOp   1
 Largest concise Abelian subgroup C1      NOp   1
                         Standard orientation:                         
 ---------------------------------------------------------------------
 Center     Atomic      Atomic             Coordinates (Angstroms)
 Number     Number       Type             X           Y           Z
 ---------------------------------------------------------------------
      1         22           0        0.324438   -0.000061    0.053829
      2         22           0        3.068398   -0.000022   -0.378021
      3          8           0        1.657178   -1.232232   -0.154531
      4          8           0        1.657229    1.232168   -0.154271
      5          8           0       -1.109502   -0.000651    1.277439
      6          8           0       -1.036702    0.000279   -1.184431
      7          8           0        3.938728   -0.000232    1.026179
      8         22           0       -2.452522   -0.000061    0.028779
      9          8           0       -3.358912   -1.532770    0.002499
     10          1           0       -3.909082   -2.328490   -0.014451
     11          8           0       -3.357491    1.533290    0.002949
     12          1           0       -3.902061    2.332840   -0.013161
 ---------------------------------------------------------------------
 Rotational constants (GHZ):           2.4313751           0.3194705           0.3075068
 Leave Link  202 at Mon Jun  7 17:27:49 2021, MaxMem=   536870912 cpu:               1.1 elap:               0.2
 (Enter /home/rheinheimer/Apps//g16/l301.exe)
 Standard basis: LANL2DZ (5D, 7F)
 Ernie: Thresh=  0.10000D-02 Tol=  0.10000D-05 Strict=F.
 Ernie:  3 primitive shells out of 167 were deleted.
 AO basis set in the form of general basis input (Overlap normalization):
      1 0
 S   3 1.00       0.000000000000
      0.1098000000D+01 -0.1023676994D+00
      0.4178000000D+00 -0.3753172148D+00
      0.8720000000D-01  0.1215423149D+01
 S   3 1.00       0.000000000000
      0.4372000000D+01 -0.3637098367D+00
      0.1098000000D+01  0.8184533826D+00
      0.4178000000D+00  0.4184526423D+00
 S   1 1.00       0.000000000000
      0.3140000000D-01  0.1000000000D+01
 P   3 1.00       0.000000000000
      0.1252000000D+02 -0.4569080054D-01
      0.1491000000D+01  0.6203313074D+00
      0.4859000000D+00  0.4765329057D+00
 P   1 1.00       0.000000000000
      0.5300000000D-01  0.1000000000D+01
 P   1 1.00       0.000000000000
      0.1600000000D-01  0.1000000000D+01
 D   4 1.00       0.000000000000
      0.2021000000D+02  0.3416819898D-01
      0.5495000000D+01  0.1710005949D+00
      0.1699000000D+01  0.4405848869D+00
      0.4840000000D+00  0.6114245818D+00
 D   1 1.00       0.000000000000
      0.1157000000D+00  0.1000000000D+01
 ****
      2 0
 S   3 1.00       0.000000000000
      0.1098000000D+01 -0.1023676994D+00
      0.4178000000D+00 -0.3753172148D+00
      0.8720000000D-01  0.1215423149D+01
 S   3 1.00       0.000000000000
      0.4372000000D+01 -0.3637098367D+00
      0.1098000000D+01  0.8184533826D+00
      0.4178000000D+00  0.4184526423D+00
 S   1 1.00       0.000000000000
      0.3140000000D-01  0.1000000000D+01
 P   3 1.00       0.000000000000
      0.1252000000D+02 -0.4569080054D-01
      0.1491000000D+01  0.6203313074D+00
      0.4859000000D+00  0.4765329057D+00
 P   1 1.00       0.000000000000
      0.5300000000D-01  0.1000000000D+01
 P   1 1.00       0.000000000000
      0.1600000000D-01  0.1000000000D+01
 D   4 1.00       0.000000000000
      0.2021000000D+02  0.3416819898D-01
      0.5495000000D+01  0.1710005949D+00
      0.1699000000D+01  0.4405848869D+00
      0.4840000000D+00  0.6114245818D+00
 D   1 1.00       0.000000000000
      0.1157000000D+00  0.1000000000D+01
 ****
      3 0
 S   7 1.00       0.000000000000
      0.7817000000D+04  0.1176000331D-02
      0.1176000000D+04  0.8968002523D-02
      0.2732000000D+03  0.4286801206D-01
      0.8117000000D+02  0.1439300405D+00
      0.2718000000D+02  0.3556301000D+00
      0.9532000000D+01  0.4612481297D+00
      0.3414000000D+01  0.1402060394D+00
 S   2 1.00       0.000000000000
      0.9532000000D+01 -0.1541530739D+00
      0.9398000000D+00  0.1056914507D+01
 S   1 1.00       0.000000000000
      0.2846000000D+00  0.1000000000D+01
 P   4 1.00       0.000000000000
      0.3518000000D+02  0.1958000050D-01
      0.7904000000D+01  0.1242000032D+00
      0.2305000000D+01  0.3947140101D+00
      0.7171000000D+00  0.6273760161D+00
 P   1 1.00       0.000000000000
      0.2137000000D+00  0.1000000000D+01
 ****
      4 0
 S   7 1.00       0.000000000000
      0.7817000000D+04  0.1176000331D-02
      0.1176000000D+04  0.8968002523D-02
      0.2732000000D+03  0.4286801206D-01
      0.8117000000D+02  0.1439300405D+00
      0.2718000000D+02  0.3556301000D+00
      0.9532000000D+01  0.4612481297D+00
      0.3414000000D+01  0.1402060394D+00
 S   2 1.00       0.000000000000
      0.9532000000D+01 -0.1541530739D+00
      0.9398000000D+00  0.1056914507D+01
 S   1 1.00       0.000000000000
      0.2846000000D+00  0.1000000000D+01
 P   4 1.00       0.000000000000
      0.3518000000D+02  0.1958000050D-01
      0.7904000000D+01  0.1242000032D+00
      0.2305000000D+01  0.3947140101D+00
      0.7171000000D+00  0.6273760161D+00
 P   1 1.00       0.000000000000
      0.2137000000D+00  0.1000000000D+01
 ****
      5 0
 S   7 1.00       0.000000000000
      0.7817000000D+04  0.1176000331D-02
      0.1176000000D+04  0.8968002523D-02
      0.2732000000D+03  0.4286801206D-01
      0.8117000000D+02  0.1439300405D+00
      0.2718000000D+02  0.3556301000D+00
      0.9532000000D+01  0.4612481297D+00
      0.3414000000D+01  0.1402060394D+00
 S   2 1.00       0.000000000000
      0.9532000000D+01 -0.1541530739D+00
      0.9398000000D+00  0.1056914507D+01
 S   1 1.00       0.000000000000
      0.2846000000D+00  0.1000000000D+01
 P   4 1.00       0.000000000000
      0.3518000000D+02  0.1958000050D-01
      0.7904000000D+01  0.1242000032D+00
      0.2305000000D+01  0.3947140101D+00
      0.7171000000D+00  0.6273760161D+00
 P   1 1.00       0.000000000000
      0.2137000000D+00  0.1000000000D+01
 ****
      6 0
 S   7 1.00       0.000000000000
      0.7817000000D+04  0.1176000331D-02
      0.1176000000D+04  0.8968002523D-02
      0.2732000000D+03  0.4286801206D-01
      0.8117000000D+02  0.1439300405D+00
      0.2718000000D+02  0.3556301000D+00
      0.9532000000D+01  0.4612481297D+00
      0.3414000000D+01  0.1402060394D+00
 S   2 1.00       0.000000000000
      0.9532000000D+01 -0.1541530739D+00
      0.9398000000D+00  0.1056914507D+01
 S   1 1.00       0.000000000000
      0.2846000000D+00  0.1000000000D+01
 P   4 1.00       0.000000000000
      0.3518000000D+02  0.1958000050D-01
      0.7904000000D+01  0.1242000032D+00
      0.2305000000D+01  0.3947140101D+00
      0.7171000000D+00  0.6273760161D+00
 P   1 1.00       0.000000000000
      0.2137000000D+00  0.1000000000D+01
 ****
      7 0
 S   7 1.00       0.000000000000
      0.7817000000D+04  0.1176000331D-02
      0.1176000000D+04  0.8968002523D-02
      0.2732000000D+03  0.4286801206D-01
      0.8117000000D+02  0.1439300405D+00
      0.2718000000D+02  0.3556301000D+00
      0.9532000000D+01  0.4612481297D+00
      0.3414000000D+01  0.1402060394D+00
 S   2 1.00       0.000000000000
      0.9532000000D+01 -0.1541530739D+00
      0.9398000000D+00  0.1056914507D+01
 S   1 1.00       0.000000000000
      0.2846000000D+00  0.1000000000D+01
 P   4 1.00       0.000000000000
      0.3518000000D+02  0.1958000050D-01
      0.7904000000D+01  0.1242000032D+00
      0.2305000000D+01  0.3947140101D+00
      0.7171000000D+00  0.6273760161D+00
 P   1 1.00       0.000000000000
      0.2137000000D+00  0.1000000000D+01
 ****
      8 0
 S   3 1.00       0.000000000000
      0.1098000000D+01 -0.1023676994D+00
      0.4178000000D+00 -0.3753172148D+00
      0.8720000000D-01  0.1215423149D+01
 S   3 1.00       0.000000000000
      0.4372000000D+01 -0.3637098367D+00
      0.1098000000D+01  0.8184533826D+00
      0.4178000000D+00  0.4184526423D+00
 S   1 1.00       0.000000000000
      0.3140000000D-01  0.1000000000D+01
 P   3 1.00       0.000000000000
      0.1252000000D+02 -0.4569080054D-01
      0.1491000000D+01  0.6203313074D+00
      0.4859000000D+00  0.4765329057D+00
 P   1 1.00       0.000000000000
      0.5300000000D-01  0.1000000000D+01
 P   1 1.00       0.000000000000
      0.1600000000D-01  0.1000000000D+01
 D   4 1.00       0.000000000000
      0.2021000000D+02  0.3416819898D-01
      0.5495000000D+01  0.1710005949D+00
      0.1699000000D+01  0.4405848869D+00
      0.4840000000D+00  0.6114245818D+00
 D   1 1.00       0.000000000000
      0.1157000000D+00  0.1000000000D+01
 ****
      9 0
 S   7 1.00       0.000000000000
      0.7817000000D+04  0.1176000331D-02
      0.1176000000D+04  0.8968002523D-02
      0.2732000000D+03  0.4286801206D-01
      0.8117000000D+02  0.1439300405D+00
      0.2718000000D+02  0.3556301000D+00
      0.9532000000D+01  0.4612481297D+00
      0.3414000000D+01  0.1402060394D+00
 S   2 1.00       0.000000000000
      0.9532000000D+01 -0.1541530739D+00
      0.9398000000D+00  0.1056914507D+01
 S   1 1.00       0.000000000000
      0.2846000000D+00  0.1000000000D+01
 P   4 1.00       0.000000000000
      0.3518000000D+02  0.1958000050D-01
      0.7904000000D+01  0.1242000032D+00
      0.2305000000D+01  0.3947140101D+00
      0.7171000000D+00  0.6273760161D+00
 P   1 1.00       0.000000000000
      0.2137000000D+00  0.1000000000D+01
 ****
     10 0
 S   3 1.00       0.000000000000
      0.1924060000D+02  0.3282807697D-01
      0.2899200000D+01  0.2312085421D+00
      0.6534000000D+00  0.8172399161D+00
 S   1 1.00       0.000000000000
      0.1776000000D+00  0.1000000000D+01
 ****
     11 0
 S   7 1.00       0.000000000000
      0.7817000000D+04  0.1176000331D-02
      0.1176000000D+04  0.8968002523D-02
      0.2732000000D+03  0.4286801206D-01
      0.8117000000D+02  0.1439300405D+00
      0.2718000000D+02  0.3556301000D+00
      0.9532000000D+01  0.4612481297D+00
      0.3414000000D+01  0.1402060394D+00
 S   2 1.00       0.000000000000
      0.9532000000D+01 -0.1541530739D+00
      0.9398000000D+00  0.1056914507D+01
 S   1 1.00       0.000000000000
      0.2846000000D+00  0.1000000000D+01
 P   4 1.00       0.000000000000
      0.3518000000D+02  0.1958000050D-01
      0.7904000000D+01  0.1242000032D+00
      0.2305000000D+01  0.3947140101D+00
      0.7171000000D+00  0.6273760161D+00
 P   1 1.00       0.000000000000
      0.2137000000D+00  0.1000000000D+01
 ****
     12 0
 S   3 1.00       0.000000000000
      0.1924060000D+02  0.3282807697D-01
      0.2899200000D+01  0.2312085421D+00
      0.6534000000D+00  0.8172399161D+00
 S   1 1.00       0.000000000000
      0.1776000000D+00  0.1000000000D+01
 ****

 Effective core potential in the form of general ECP input:
      1 0
 Ti1-ECP   2 10
 D component
  3
  1      265.3263909      -10.00000000    0.00000000
  2       47.7687815      -51.84278160    0.00000000
  2       11.8903334       -9.14291450    0.00000000
 S-D projection
  5
  0       81.4730696        3.00000000    0.00000000
  1       72.6496724       19.48255790    0.00000000
  2       31.8128213      207.33492790    0.00000000
  2        6.1664468      235.67445010    0.00000000
  2        5.8268347     -166.87843870    0.00000000
 P-D projection
  5
  0       50.2966943        5.00000000    0.00000000
  1       63.5089754        5.53488220    0.00000000
  2       26.0996084      177.84193840    0.00000000
  2        5.6022573      107.42071530    0.00000000
  2        5.2171069      -71.90659020    0.00000000
      2 0
 Ti2-ECP   2 10
 D component
  3
  1      265.3263909      -10.00000000    0.00000000
  2       47.7687815      -51.84278160    0.00000000
  2       11.8903334       -9.14291450    0.00000000
 S-D projection
  5
  0       81.4730696        3.00000000    0.00000000
  1       72.6496724       19.48255790    0.00000000
  2       31.8128213      207.33492790    0.00000000
  2        6.1664468      235.67445010    0.00000000
  2        5.8268347     -166.87843870    0.00000000
 P-D projection
  5
  0       50.2966943        5.00000000    0.00000000
  1       63.5089754        5.53488220    0.00000000
  2       26.0996084      177.84193840    0.00000000
  2        5.6022573      107.42071530    0.00000000
  2        5.2171069      -71.90659020    0.00000000
      8 0
 Ti8-ECP   2 10
 D component
  3
  1      265.3263909      -10.00000000    0.00000000
  2       47.7687815      -51.84278160    0.00000000
  2       11.8903334       -9.14291450    0.00000000
 S-D projection
  5
  0       81.4730696        3.00000000    0.00000000
  1       72.6496724       19.48255790    0.00000000
  2       31.8128213      207.33492790    0.00000000
  2        6.1664468      235.67445010    0.00000000
  2        5.8268347     -166.87843870    0.00000000
 P-D projection
  5
  0       50.2966943        5.00000000    0.00000000
  1       63.5089754        5.53488220    0.00000000
  2       26.0996084      177.84193840    0.00000000
  2        5.6022573      107.42071530    0.00000000
  2        5.2171069      -71.90659020    0.00000000
 
 There are   139 symmetry adapted cartesian basis functions of A   symmetry.
 There are   133 symmetry adapted basis functions of A   symmetry.
   133 basis functions,   339 primitive gaussians,   139 cartesian basis functions
    47 alpha electrons       47 beta electrons
       nuclear repulsion energy       709.2329436421 Hartrees.
 IExCor=  402 DFT=T Ex+Corr=B3LYP ExCW=0 ScaHFX=  0.200000
 ScaDFX=  0.800000  0.720000  1.000000  0.810000 ScalE2=  1.000000  1.000000
 IRadAn=      5 IRanWt=     -1 IRanGd=            0 ICorTp=0 IEmpDi=  4
 NAtoms=   12 NActive=   12 NUniq=   12 SFac= 1.00D+00 NAtFMM=   60 NAOKFM=F Big=F
 Integral buffers will be    131072 words long.
 Raffenetti 2 integral format.
 Two-electron integral symmetry is turned on.
 ------------------------------------------------------------------------------
 Polarizable Continuum Model (PCM)
 =================================
 Model                : PCM.
 Atomic radii         : UFF (Universal Force Field).
 Polarization charges : Total charges.
 Charge compensation  : None.
 Solution method      : On-the-fly selection.
 Cavity type          : Scaled VdW (van der Waals Surface) (Alpha=1.100).
 Cavity algorithm     : GePol (No added spheres)
                        Default sphere list used, NSphG=   12.
                        Lebedev-Laikov grids with approx.  5.0 points / Ang**2.
                        Smoothing algorithm: York/Karplus (Gamma=1.0000).
                        Polarization charges: spherical gaussians, with
                                              point-specific exponents (IZeta= 3).
                        Self-potential: point-specific (ISelfS= 7).
                        Self-field    : sphere-specific E.n sum rule (ISelfD= 2).
 Solvent              : Water, Eps=  78.355300 Eps(inf)=   1.777849
 ------------------------------------------------------------------------------
 Spheres list:
 ISph  on   Nord     Re0    Alpha      Xe            Ye            Ze
    1  Ti      1    1.5875  1.100      0.324438     -0.000061      0.053829
    2  Ti      2    1.5875  1.100      3.068398     -0.000022     -0.378021
    3   O      3    1.7500  1.100      1.657178     -1.232232     -0.154531
    4   O      4    1.7500  1.100      1.657229      1.232168     -0.154271
    5   O      5    1.7500  1.100     -1.109502     -0.000651      1.277439
    6   O      6    1.7500  1.100     -1.036702      0.000279     -1.184431
    7   O      7    1.7500  1.100      3.938728     -0.000232      1.026179
    8  Ti      8    1.5875  1.100     -2.452522     -0.000061      0.028779
    9   O      9    1.7500  1.100     -3.358912     -1.532770      0.002499
   10   H     10    1.4430  1.100     -3.909082     -2.328490     -0.014451
   11   O     11    1.7500  1.100     -3.357491      1.533290      0.002949
   12   H     12    1.4430  1.100     -3.902061      2.332840     -0.013161
 ------------------------------------------------------------------------------
 GePol: Number of generator spheres                  =      12
 GePol: Total number of spheres                      =      12
 GePol: Number of exposed spheres                    =      12 (100.00%)
 GePol: Number of points                             =    1555
 GePol: Average weight of points                     =       0.14
 GePol: Minimum weight of points                     =   0.22D-08
 GePol: Maximum weight of points                     =    0.21907
 GePol: Number of points with low weight             =      46
 GePol: Fraction of low-weight points (<1% of avg)   =       2.96%
 GePol: Cavity surface area                          =    220.563 Ang**2
 GePol: Cavity volume                                =    194.581 Ang**3
 Leave Link  301 at Mon Jun  7 17:27:49 2021, MaxMem=   536870912 cpu:               1.0 elap:               0.1
 (Enter /home/rheinheimer/Apps//g16/l302.exe)
 NPDir=0 NMtPBC=     1 NCelOv=     1 NCel=       1 NClECP=     1 NCelD=      1
         NCelK=      1 NCelE2=     1 NClLst=     1 CellRange=     0.0.
 One-electron integrals computed using PRISM.
 One-electron integral symmetry used in STVInt
   1 Symmetry operations used in ECPInt.
 ECPInt:  NShTT=    2016 NPrTT=   13777 LenC2=    1945 LenP2D=    9110.
 LDataN:  DoStor=T MaxTD1= 4 Len=   56
 NBasis=   133 RedAO= T EigKep=  1.65D-03  NBF=   133
 NBsUse=   133 1.00D-06 EigRej= -1.00D+00 NBFU=   133
 Precomputing XC quadrature grid using
 IXCGrd= 4 IRadAn=           5 IRanWt=          -1 IRanGd=           0 AccXCQ= 0.00D+00.
 Generated NRdTot=       0 NPtTot=           0 NUsed=           0 NTot=          32
 NSgBfM=   139   139   139   139   139 MxSgAt=    12 MxSgA2=    12.
 Leave Link  302 at Mon Jun  7 17:27:51 2021, MaxMem=   536870912 cpu:               9.6 elap:               1.3
 (Enter /home/rheinheimer/Apps//g16/l303.exe)
 DipDrv:  MaxL=1.
 Leave Link  303 at Mon Jun  7 17:27:51 2021, MaxMem=   536870912 cpu:               1.2 elap:               0.2
 (Enter /home/rheinheimer/Apps//g16/l401.exe)
 ExpMin= 1.60D-02 ExpMax= 7.82D+03 ExpMxC= 2.73D+02 IAcc=3 IRadAn=         5 AccDes= 0.00D+00
 Harris functional with IExCor=  402 and IRadAn=       5 diagonalized for initial guess.
 HarFok:  IExCor=  402 AccDes= 0.00D+00 IRadAn=         5 IDoV= 1 UseB2=F ITyADJ=14
 ICtDFT=  3500011 ScaDFX=  1.000000  1.000000  1.000000  1.000000
 FoFCou: FMM=F IPFlag=           0 FMFlag=      100000 FMFlg1=           0
         NFxFlg=           0 DoJE=T BraDBF=F KetDBF=T FulRan=T
         wScrn=  0.000000 ICntrl=       500 IOpCl=  0 I1Cent=   200000004 NGrid=           0
         NMat0=    1 NMatS0=      1 NMatT0=    0 NMatD0=    1 NMtDS0=    0 NMtDT0=    0
 Petite list used in FoFCou.
 Harris En= -703.182548672149    
 JPrj=0 DoOrth=F DoCkMO=F.
 Leave Link  401 at Mon Jun  7 17:27:52 2021, MaxMem=   536870912 cpu:              10.0 elap:               1.4
 (Enter /home/rheinheimer/Apps//g16/l502.exe)
 Keep R1 ints in memory in canonical form, NReq=47412208.
 FoFCou: FMM=F IPFlag=           0 FMFlag=           0 FMFlg1=           0
         NFxFlg=           0 DoJE=F BraDBF=F KetDBF=F FulRan=T
         wScrn=  0.000000 ICntrl=       600 IOpCl=  0 I1Cent=           0 NGrid=           0
         NMat0=    1 NMatS0=   8911 NMatT0=    0 NMatD0=    1 NMtDS0=    0 NMtDT0=    0
 Symmetry not used in FoFCou.
 Two-electron integral symmetry not used.
 Closed shell SCF:
 Using DIIS extrapolation, IDIIS=  1040.
 NGot=   536870912 LenX=   497122120 LenY=   497102358
 Requested convergence on RMS density matrix=1.00D-08 within 128 cycles.
 Requested convergence on MAX density matrix=1.00D-06.
 Requested convergence on             energy=1.00D-06.
 No special actions if energy rises.

 Cycle   1  Pass 1  IDiag  1:
 Inv3:  Mode=1 IEnd=     7254075.
 Iteration    1 A*A^-1 deviation from unit magnitude is 2.89D-15 for    569.
 Iteration    1 A*A^-1 deviation from orthogonality  is 2.15D-15 for    911     39.
 Iteration    1 A^-1*A deviation from unit magnitude is 3.11D-15 for    569.
 Iteration    1 A^-1*A deviation from orthogonality  is 7.72D-15 for   1359   1305.
 E= -700.753242611416    
 DIIS: error= 1.01D-01 at cycle   1 NSaved=   1.
 NSaved= 1 IEnMin= 1 EnMin= -700.753242611416     IErMin= 1 ErrMin= 1.01D-01
 ErrMax= 1.01D-01  0.00D+00 EMaxC= 1.00D-01 BMatC= 2.12D+00 BMatP= 2.12D+00
 IDIUse=3 WtCom= 0.00D+00 WtEn= 1.00D+00
 Coeff-Com:  0.100D+01
 Coeff-En:   0.100D+01
 Coeff:      0.100D+01
 Gap=    -0.244 Goal=   None    Shift=    0.000
 GapD=   -0.244 DampG=0.250 DampE=0.125 DampFc=0.1250 IDamp=-1.
 Damping current iteration by 1.25D-01
 RMSDP=3.51D-02 MaxDP=8.87D-01              OVMax= 9.08D-01

 Cycle   2  Pass 1  IDiag  1:
 E= -701.290560449024     Delta-E=       -0.537317837609 Rises=F Damp=T
 DIIS: error= 5.11D-02 at cycle   2 NSaved=   2.
 NSaved= 2 IEnMin= 2 EnMin= -701.290560449024     IErMin= 2 ErrMin= 5.11D-02
 ErrMax= 5.11D-02  0.00D+00 EMaxC= 1.00D-01 BMatC= 4.43D-01 BMatP= 2.12D+00
 IDIUse=3 WtCom= 4.89D-01 WtEn= 5.11D-01
 Coeff-Com: -0.665D+00 0.166D+01
 Coeff-En:   0.167D+00 0.833D+00
 Coeff:     -0.239D+00 0.124D+01
 Gap=     0.058 Goal=   None    Shift=    0.000
 RMSDP=9.65D-03 MaxDP=1.58D-01 DE=-5.37D-01 OVMax= 9.71D-01

 Cycle   3  Pass 1  IDiag  1:
 E= -702.323107667223     Delta-E=       -1.032547218199 Rises=F Damp=F
 DIIS: error= 6.62D-02 at cycle   3 NSaved=   3.
 NSaved= 3 IEnMin= 3 EnMin= -702.323107667223     IErMin= 2 ErrMin= 5.11D-02
 ErrMax= 6.62D-02  0.00D+00 EMaxC= 1.00D-01 BMatC= 4.50D-01 BMatP= 4.43D-01
 IDIUse=3 WtCom= 3.38D-01 WtEn= 6.62D-01
 Coeff-Com: -0.264D+00 0.888D+00 0.375D+00
 Coeff-En:   0.143D+00 0.000D+00 0.857D+00
 Coeff:      0.516D-02 0.301D+00 0.694D+00
 Gap=     0.299 Goal=   None    Shift=    0.000
 RMSDP=7.70D-03 MaxDP=1.38D-01 DE=-1.03D+00 OVMax= 1.28D-01

 Cycle   4  Pass 1  IDiag  1:
 E= -702.583605634100     Delta-E=       -0.260497966877 Rises=F Damp=F
 DIIS: error= 3.72D-02 at cycle   4 NSaved=   4.
 NSaved= 4 IEnMin= 4 EnMin= -702.583605634100     IErMin= 4 ErrMin= 3.72D-02
 ErrMax= 3.72D-02  0.00D+00 EMaxC= 1.00D-01 BMatC= 1.66D-01 BMatP= 4.43D-01
 IDIUse=3 WtCom= 6.28D-01 WtEn= 3.72D-01
 Coeff-Com: -0.171D+00 0.630D+00 0.369D+00 0.171D+00
 Coeff-En:   0.000D+00 0.000D+00 0.249D+00 0.751D+00
 Coeff:     -0.107D+00 0.396D+00 0.324D+00 0.387D+00
 Gap=     0.260 Goal=   None    Shift=    0.000
 RMSDP=4.06D-03 MaxDP=1.12D-01 DE=-2.60D-01 OVMax= 1.58D-01

 Cycle   5  Pass 1  IDiag  1:
 E= -702.598687881921     Delta-E=       -0.015082247821 Rises=F Damp=F
 DIIS: error= 2.77D-02 at cycle   5 NSaved=   5.
 NSaved= 5 IEnMin= 5 EnMin= -702.598687881921     IErMin= 5 ErrMin= 2.77D-02
 ErrMax= 2.77D-02  0.00D+00 EMaxC= 1.00D-01 BMatC= 1.28D-01 BMatP= 1.66D-01
 IDIUse=3 WtCom= 7.23D-01 WtEn= 2.77D-01
 Coeff-Com: -0.122D+00 0.195D+00 0.160D+00 0.379D+00 0.388D+00
 Coeff-En:   0.000D+00 0.000D+00 0.000D+00 0.476D+00 0.524D+00
 Coeff:     -0.883D-01 0.141D+00 0.116D+00 0.406D+00 0.426D+00
 Gap=     0.196 Goal=   None    Shift=    0.000
 RMSDP=2.26D-03 MaxDP=8.60D-02 DE=-1.51D-02 OVMax= 9.55D-02

 Cycle   6  Pass 1  IDiag  1:
 E= -702.718728754281     Delta-E=       -0.120040872360 Rises=F Damp=F
 DIIS: error= 7.47D-03 at cycle   6 NSaved=   6.
 NSaved= 6 IEnMin= 6 EnMin= -702.718728754281     IErMin= 6 ErrMin= 7.47D-03
 ErrMax= 7.47D-03  0.00D+00 EMaxC= 1.00D-01 BMatC= 9.32D-03 BMatP= 1.28D-01
 IDIUse=3 WtCom= 9.25D-01 WtEn= 7.47D-02
 Coeff-Com: -0.636D-01 0.711D-01 0.252D-01 0.219D+00 0.309D+00 0.439D+00
 Coeff-En:   0.000D+00 0.000D+00 0.000D+00 0.000D+00 0.531D-01 0.947D+00
 Coeff:     -0.589D-01 0.658D-01 0.233D-01 0.202D+00 0.290D+00 0.477D+00
 Gap=     0.201 Goal=   None    Shift=    0.000
 RMSDP=7.32D-04 MaxDP=1.85D-02 DE=-1.20D-01 OVMax= 2.11D-02

 Cycle   7  Pass 1  IDiag  1:
 E= -702.724110861543     Delta-E=       -0.005382107262 Rises=F Damp=F
 DIIS: error= 4.45D-03 at cycle   7 NSaved=   7.
 NSaved= 7 IEnMin= 7 EnMin= -702.724110861543     IErMin= 7 ErrMin= 4.45D-03
 ErrMax= 4.45D-03  0.00D+00 EMaxC= 1.00D-01 BMatC= 2.60D-03 BMatP= 9.32D-03
 IDIUse=3 WtCom= 9.55D-01 WtEn= 4.45D-02
 Coeff-Com: -0.502D-01 0.643D-01-0.185D-01 0.424D-01 0.996D-01 0.328D+00
 Coeff-Com:  0.535D+00
 Coeff-En:   0.000D+00 0.000D+00 0.000D+00 0.000D+00 0.000D+00 0.279D+00
 Coeff-En:   0.721D+00
 Coeff:     -0.480D-01 0.614D-01-0.177D-01 0.405D-01 0.952D-01 0.326D+00
 Coeff:      0.543D+00
 Gap=     0.197 Goal=   None    Shift=    0.000
 RMSDP=2.04D-04 MaxDP=5.20D-03 DE=-5.38D-03 OVMax= 5.66D-03

 Cycle   8  Pass 1  IDiag  1:
 E= -702.725150483074     Delta-E=       -0.001039621531 Rises=F Damp=F
 DIIS: error= 3.77D-03 at cycle   8 NSaved=   8.
 NSaved= 8 IEnMin= 8 EnMin= -702.725150483074     IErMin= 8 ErrMin= 3.77D-03
 ErrMax= 3.77D-03  0.00D+00 EMaxC= 1.00D-01 BMatC= 1.52D-03 BMatP= 2.60D-03
 IDIUse=3 WtCom= 9.62D-01 WtEn= 3.77D-02
 EnCoef did     5 forward-backward iterations
 Coeff-Com: -0.470D-01 0.674D-01-0.221D-01-0.121D-01 0.145D-01 0.201D+00
 Coeff-Com:  0.445D+00 0.354D+00
 Coeff-En:   0.000D+00 0.000D+00 0.000D+00 0.000D+00 0.000D+00 0.167D+00
 Coeff-En:   0.108D+00 0.725D+00
 Coeff:     -0.452D-01 0.648D-01-0.213D-01-0.116D-01 0.139D-01 0.200D+00
 Coeff:      0.432D+00 0.368D+00
 Gap=     0.197 Goal=   None    Shift=    0.000
 RMSDP=9.93D-05 MaxDP=2.54D-03 DE=-1.04D-03 OVMax= 3.36D-03

 Cycle   9  Pass 1  IDiag  1:
 E= -702.725076952101     Delta-E=        0.000073530973 Rises=F Damp=F
 DIIS: error= 3.80D-03 at cycle   9 NSaved=   9.
 NSaved= 9 IEnMin= 8 EnMin= -702.725150483074     IErMin= 8 ErrMin= 3.77D-03
 ErrMax= 3.80D-03  0.00D+00 EMaxC= 1.00D-01 BMatC= 1.59D-03 BMatP= 1.52D-03
 IDIUse=3 WtCom= 9.62D-01 WtEn= 3.77D-02
 EnCoef did     7 forward-backward iterations
 Coeff-Com: -0.475D-01 0.682D-01-0.206D-01-0.998D-02 0.132D-01 0.187D+00
 Coeff-Com:  0.387D+00 0.318D+00 0.105D+00
 Coeff-En:   0.000D+00 0.000D+00 0.000D+00 0.000D+00 0.000D+00 0.165D+00
 Coeff-En:   0.000D+00 0.369D+00 0.466D+00
 Coeff:     -0.458D-01 0.656D-01-0.198D-01-0.960D-02 0.127D-01 0.186D+00
 Coeff:      0.372D+00 0.320D+00 0.118D+00
 Gap=     0.197 Goal=   None    Shift=    0.000
 RMSDP=8.16D-06 MaxDP=1.64D-04 DE= 7.35D-05 OVMax= 2.47D-04

 Cycle  10  Pass 1  IDiag  1:
 E= -702.725045830983     Delta-E=        0.000031121118 Rises=F Damp=F
 DIIS: error= 3.83D-03 at cycle  10 NSaved=  10.
 NSaved=10 IEnMin= 8 EnMin= -702.725150483074     IErMin= 8 ErrMin= 3.77D-03
 ErrMax= 3.83D-03  0.00D+00 EMaxC= 1.00D-01 BMatC= 1.62D-03 BMatP= 1.52D-03
 IDIUse=3 WtCom= 9.62D-01 WtEn= 3.77D-02
 Rare condition: small coef for last iteration:  0.000D+00
 Coeff-Com: -0.337D-01 0.481D-01-0.345D-01-0.252D-01 0.426D-01 0.373D+00
 Coeff-Com:  0.132D+01 0.126D+01 0.681D+01-0.876D+01
 Coeff-En:   0.000D+00 0.000D+00 0.000D+00 0.000D+00 0.000D+00 0.160D+00
 Coeff-En:   0.000D+00 0.611D+00 0.000D+00 0.229D+00
 Coeff:     -0.337D-01 0.481D-01-0.345D-01-0.252D-01 0.426D-01 0.373D+00
 Coeff:      0.132D+01 0.126D+01 0.681D+01-0.876D+01
 Gap=     0.196 Goal=   None    Shift=    0.000
 RMSDP=6.99D-05 MaxDP=2.03D-03 DE= 3.11D-05 OVMax= 2.48D-03

 Cycle  11  Pass 1  IDiag  1:
 E= -702.725851876664     Delta-E=       -0.000806045682 Rises=F Damp=F
 DIIS: error= 2.69D-03 at cycle  11 NSaved=  11.
 NSaved=11 IEnMin=11 EnMin= -702.725851876664     IErMin=11 ErrMin= 2.69D-03
 ErrMax= 2.69D-03  0.00D+00 EMaxC= 1.00D-01 BMatC= 8.39D-04 BMatP= 1.52D-03
 IDIUse=3 WtCom= 9.73D-01 WtEn= 2.69D-02
 Large coefficients: NSaved= 11 BigCof=   12.84 CofMax=   10.00 Det=-9.08D-08
 Inversion failed.  Reducing to 10 matrices.
 Large coefficients: NSaved= 10 BigCof=   18.77 CofMax=   10.00 Det=-2.55D-07
 Inversion failed.  Reducing to  9 matrices.
 Large coefficients: NSaved=  9 BigCof=   18.93 CofMax=   10.00 Det=-2.77D-07
 Inversion failed.  Reducing to  8 matrices.
 Large coefficients: NSaved=  8 BigCof=   17.57 CofMax=   10.00 Det=-2.89D-07
 Inversion failed.  Reducing to  7 matrices.
 Large coefficients: NSaved=  7 BigCof=   18.65 CofMax=   10.00 Det=-4.00D-07
 Inversion failed.  Reducing to  6 matrices.
 Large coefficients: NSaved=  6 BigCof=   11.20 CofMax=   10.00 Det=-5.93D-07
 Inversion failed.  Reducing to  5 matrices.
 Large coefficients: NSaved=  5 BigCof=   11.36 CofMax=   10.00 Det=-6.18D-07
 Inversion failed.  Reducing to  4 matrices.
 Coeff-Com:  0.232D+00 0.591D+01-0.808D+01 0.294D+01
 Coeff-En:   0.000D+00 0.000D+00 0.000D+00 0.100D+01
 Coeff:      0.226D+00 0.575D+01-0.786D+01 0.289D+01
 Gap=     0.192 Goal=   None    Shift=    0.000
 RMSDP=3.02D-04 MaxDP=8.87D-03 DE=-8.06D-04 OVMax= 8.66D-03

 Cycle  12  Pass 1  IDiag  1:
 E= -702.725737621859     Delta-E=        0.000114254805 Rises=F Damp=F
 DIIS: error= 2.33D-03 at cycle  12 NSaved=   5.
 NSaved= 5 IEnMin= 4 EnMin= -702.725851876664     IErMin= 5 ErrMin= 2.33D-03
 ErrMax= 2.33D-03  0.00D+00 EMaxC= 1.00D-01 BMatC= 1.10D-03 BMatP= 8.39D-04
 IDIUse=3 WtCom= 9.73D-01 WtEn= 2.69D-02
 Coeff-Com:  0.154D+00 0.365D+01-0.527D+01 0.223D+01 0.244D+00
 Coeff-En:   0.000D+00 0.000D+00 0.000D+00 0.528D+00 0.472D+00
 Coeff:      0.150D+00 0.355D+01-0.513D+01 0.218D+01 0.250D+00
 Gap=     0.194 Goal=   None    Shift=    0.000
 RMSDP=1.80D-04 MaxDP=4.54D-03 DE= 1.14D-04 OVMax= 5.43D-03

 Cycle  13  Pass 1  IDiag  1:
 E= -702.726719600557     Delta-E=       -0.000981978698 Rises=F Damp=F
 DIIS: error= 2.86D-04 at cycle  13 NSaved=   6.
 NSaved= 6 IEnMin= 6 EnMin= -702.726719600557     IErMin= 6 ErrMin= 2.86D-04
 ErrMax= 2.86D-04  0.00D+00 EMaxC= 1.00D-01 BMatC= 1.57D-05 BMatP= 8.39D-04
 IDIUse=3 WtCom= 9.97D-01 WtEn= 2.86D-03
 Coeff-Com:  0.101D+00 0.212D+01-0.304D+01 0.127D+01 0.161D+00 0.386D+00
 Coeff-En:   0.000D+00 0.000D+00 0.000D+00 0.000D+00 0.000D+00 0.100D+01
 Coeff:      0.101D+00 0.211D+01-0.303D+01 0.127D+01 0.161D+00 0.388D+00
 Gap=     0.194 Goal=   None    Shift=    0.000
 RMSDP=2.91D-05 MaxDP=7.80D-04 DE=-9.82D-04 OVMax= 7.97D-04

 Cycle  14  Pass 1  IDiag  1:
 E= -702.726732813747     Delta-E=       -0.000013213190 Rises=F Damp=F
 DIIS: error= 7.64D-05 at cycle  14 NSaved=   7.
 NSaved= 7 IEnMin= 7 EnMin= -702.726732813747     IErMin= 7 ErrMin= 7.64D-05
 ErrMax= 7.64D-05  0.00D+00 EMaxC= 1.00D-01 BMatC= 1.95D-06 BMatP= 1.57D-05
 IDIUse=1 WtCom= 1.00D+00 WtEn= 0.00D+00
 Coeff-Com:  0.513D-01 0.109D+01-0.156D+01 0.650D+00 0.837D-01 0.287D+00
 Coeff-Com:  0.396D+00
 Coeff:      0.513D-01 0.109D+01-0.156D+01 0.650D+00 0.837D-01 0.287D+00
 Coeff:      0.396D+00
 Gap=     0.194 Goal=   None    Shift=    0.000
 RMSDP=9.35D-06 MaxDP=2.60D-04 DE=-1.32D-05 OVMax= 2.84D-04

 Cycle  15  Pass 1  IDiag  1:
 E= -702.726734599033     Delta-E=       -0.000001785286 Rises=F Damp=F
 DIIS: error= 2.04D-05 at cycle  15 NSaved=   8.
 NSaved= 8 IEnMin= 8 EnMin= -702.726734599033     IErMin= 8 ErrMin= 2.04D-05
 ErrMax= 2.04D-05  0.00D+00 EMaxC= 1.00D-01 BMatC= 1.87D-07 BMatP= 1.95D-06
 IDIUse=1 WtCom= 1.00D+00 WtEn= 0.00D+00
 Coeff-Com:  0.145D-01 0.382D+00-0.552D+00 0.242D+00 0.299D-01 0.129D+00
 Coeff-Com:  0.260D+00 0.496D+00
 Coeff:      0.145D-01 0.382D+00-0.552D+00 0.242D+00 0.299D-01 0.129D+00
 Coeff:      0.260D+00 0.496D+00
 Gap=     0.194 Goal=   None    Shift=    0.000
 RMSDP=3.35D-06 MaxDP=9.17D-05 DE=-1.79D-06 OVMax= 9.08D-05

 Cycle  16  Pass 1  IDiag  1:
 E= -702.726734768902     Delta-E=       -0.000000169869 Rises=F Damp=F
 DIIS: error= 1.19D-05 at cycle  16 NSaved=   9.
 NSaved= 9 IEnMin= 9 EnMin= -702.726734768902     IErMin= 9 ErrMin= 1.19D-05
 ErrMax= 1.19D-05  0.00D+00 EMaxC= 1.00D-01 BMatC= 1.59D-08 BMatP= 1.87D-07
 IDIUse=1 WtCom= 1.00D+00 WtEn= 0.00D+00
 Coeff-Com: -0.598D-02-0.120D+00 0.169D+00-0.695D-01-0.109D-01-0.247D-01
 Coeff-Com: -0.218D-01 0.164D+00 0.920D+00
 Coeff:     -0.598D-02-0.120D+00 0.169D+00-0.695D-01-0.109D-01-0.247D-01
 Coeff:     -0.218D-01 0.164D+00 0.920D+00
 Gap=     0.194 Goal=   None    Shift=    0.000
 RMSDP=1.66D-06 MaxDP=4.47D-05 DE=-1.70D-07 OVMax= 8.77D-05

 Cycle  17  Pass 1  IDiag  1:
 E= -702.726734786527     Delta-E=       -0.000000017626 Rises=F Damp=F
 DIIS: error= 4.95D-06 at cycle  17 NSaved=  10.
 NSaved=10 IEnMin=10 EnMin= -702.726734786527     IErMin=10 ErrMin= 4.95D-06
 ErrMax= 4.95D-06  0.00D+00 EMaxC= 1.00D-01 BMatC= 7.45D-09 BMatP= 1.59D-08
 IDIUse=1 WtCom= 1.00D+00 WtEn= 0.00D+00
 Coeff-Com: -0.528D-02-0.112D+00 0.158D+00-0.658D-01-0.982D-02-0.264D-01
 Coeff-Com: -0.335D-01 0.874D-01 0.680D+00 0.328D+00
 Coeff:     -0.528D-02-0.112D+00 0.158D+00-0.658D-01-0.982D-02-0.264D-01
 Coeff:     -0.335D-01 0.874D-01 0.680D+00 0.328D+00
 Gap=     0.194 Goal=   None    Shift=    0.000
 RMSDP=5.61D-07 MaxDP=1.34D-05 DE=-1.76D-08 OVMax= 1.81D-05

 Cycle  18  Pass 1  IDiag  1:
 E= -702.726734794082     Delta-E=       -0.000000007554 Rises=F Damp=F
 DIIS: error= 9.84D-07 at cycle  18 NSaved=  11.
 NSaved=11 IEnMin=11 EnMin= -702.726734794082     IErMin=11 ErrMin= 9.84D-07
 ErrMax= 9.84D-07  0.00D+00 EMaxC= 1.00D-01 BMatC= 2.13D-10 BMatP= 7.45D-09
 IDIUse=1 WtCom= 1.00D+00 WtEn= 0.00D+00
 Coeff-Com: -0.143D-02-0.327D-01 0.455D-01-0.181D-01-0.245D-02-0.777D-02
 Coeff-Com: -0.125D-01 0.445D-02 0.160D+00 0.146D+00 0.719D+00
 Coeff:     -0.143D-02-0.327D-01 0.455D-01-0.181D-01-0.245D-02-0.777D-02
 Coeff:     -0.125D-01 0.445D-02 0.160D+00 0.146D+00 0.719D+00
 Gap=     0.194 Goal=   None    Shift=    0.000
 RMSDP=1.33D-07 MaxDP=2.72D-06 DE=-7.55D-09 OVMax= 3.87D-06

 Cycle  19  Pass 1  IDiag  1:
 E= -702.726734794318     Delta-E=       -0.000000000236 Rises=F Damp=F
 DIIS: error= 2.12D-07 at cycle  19 NSaved=  12.
 NSaved=12 IEnMin=12 EnMin= -702.726734794318     IErMin=12 ErrMin= 2.12D-07
 ErrMax= 2.12D-07  0.00D+00 EMaxC= 1.00D-01 BMatC= 1.33D-11 BMatP= 2.13D-10
 IDIUse=1 WtCom= 1.00D+00 WtEn= 0.00D+00
 Coeff-Com:  0.145D-03 0.158D-02-0.238D-02 0.117D-02 0.316D-03 0.521D-03
 Coeff-Com: -0.363D-03-0.811D-02-0.175D-01 0.114D-01 0.241D+00 0.772D+00
 Coeff:      0.145D-03 0.158D-02-0.238D-02 0.117D-02 0.316D-03 0.521D-03
 Coeff:     -0.363D-03-0.811D-02-0.175D-01 0.114D-01 0.241D+00 0.772D+00
 Gap=     0.194 Goal=   None    Shift=    0.000
 RMSDP=3.52D-08 MaxDP=9.71D-07 DE=-2.36D-10 OVMax= 1.14D-06

 Cycle  20  Pass 1  IDiag  1:
 E= -702.726734794334     Delta-E=       -0.000000000016 Rises=F Damp=F
 DIIS: error= 5.78D-08 at cycle  20 NSaved=  13.
 NSaved=13 IEnMin=13 EnMin= -702.726734794334     IErMin=13 ErrMin= 5.78D-08
 ErrMax= 5.78D-08  0.00D+00 EMaxC= 1.00D-01 BMatC= 6.59D-13 BMatP= 1.33D-11
 IDIUse=1 WtCom= 1.00D+00 WtEn= 0.00D+00
 Coeff-Com:  0.882D-04 0.170D-02-0.235D-02 0.925D-03 0.153D-03 0.376D-03
 Coeff-Com:  0.300D-03-0.205D-02-0.105D-01-0.176D-02 0.367D-01 0.196D+00
 Coeff-Com:  0.780D+00
 Coeff:      0.882D-04 0.170D-02-0.235D-02 0.925D-03 0.153D-03 0.376D-03
 Coeff:      0.300D-03-0.205D-02-0.105D-01-0.176D-02 0.367D-01 0.196D+00
 Coeff:      0.780D+00
 Gap=     0.194 Goal=   None    Shift=    0.000
 RMSDP=8.71D-09 MaxDP=2.99D-07 DE=-1.60D-11 OVMax= 3.80D-07

 Error on total polarization charges =  0.02123
 SCF Done:  E(RB3LYP) =  -702.726734794     A.U. after   20 cycles
            NFock= 20  Conv=0.87D-08     -V/T= 2.1751
 KE= 5.980158747051D+02 PE=-3.032954735895D+03 EE= 1.022979182753D+03
 Leave Link  502 at Mon Jun  7 17:28:38 2021, MaxMem=   536870912 cpu:             314.3 elap:              45.3
 (Enter /home/rheinheimer/Apps//g16/l601.exe)
 Copying SCF densities to generalized density rwf, IOpCl= 0 IROHF=0.

 **********************************************************************

            Population analysis using the SCF density.

 **********************************************************************

 Orbital symmetries:
       Occupied  (A) (A) (A) (A) (A) (A) (A) (A) (A) (A) (A) (A)
                 (A) (A) (A) (A) (A) (A) (A) (A) (A) (A) (A) (A)
                 (A) (A) (A) (A) (A) (A) (A) (A) (A) (A) (A) (A)
                 (A) (A) (A) (A) (A) (A) (A) (A) (A) (A) (A)
       Virtual   (A) (A) (A) (A) (A) (A) (A) (A) (A) (A) (A) (A)
                 (A) (A) (A) (A) (A) (A) (A) (A) (A) (A) (A) (A)
                 (A) (A) (A) (A) (A) (A) (A) (A) (A) (A) (A) (A)
                 (A) (A) (A) (A) (A) (A) (A) (A) (A) (A) (A) (A)
                 (A) (A) (A) (A) (A) (A) (A) (A) (A) (A) (A) (A)
                 (A) (A) (A) (A) (A) (A) (A) (A) (A) (A) (A) (A)
                 (A) (A) (A) (A) (A) (A) (A) (A) (A) (A) (A) (A)
                 (A) (A)
 The electronic state is 1-A.
 Alpha  occ. eigenvalues --  -19.14345 -19.14341 -19.14099 -19.13735 -19.13735
 Alpha  occ. eigenvalues --  -19.13605 -19.12369  -2.46312  -2.45659  -2.44802
 Alpha  occ. eigenvalues --   -1.59595  -1.58662  -1.58180  -1.57967  -1.57536
 Alpha  occ. eigenvalues --   -1.57452  -1.57298  -1.56660  -1.56503  -0.97250
 Alpha  occ. eigenvalues --   -0.96625  -0.92895  -0.91291  -0.90894  -0.90644
 Alpha  occ. eigenvalues --   -0.87102  -0.51836  -0.50795  -0.40698  -0.39501
 Alpha  occ. eigenvalues --   -0.39214  -0.38048  -0.37204  -0.36775  -0.36666
 Alpha  occ. eigenvalues --   -0.36274  -0.36173  -0.34929  -0.34346  -0.34075
 Alpha  occ. eigenvalues --   -0.32908  -0.32797  -0.31656  -0.31467  -0.30768
 Alpha  occ. eigenvalues --   -0.29763  -0.29055
 Alpha virt. eigenvalues --   -0.09697  -0.08800  -0.07378  -0.06553  -0.05964
 Alpha virt. eigenvalues --   -0.05183  -0.04100  -0.04041  -0.03048  -0.02040
 Alpha virt. eigenvalues --   -0.01668  -0.01031  -0.00543  -0.00207   0.00191
 Alpha virt. eigenvalues --    0.00422   0.01221   0.01316   0.01756   0.02031
 Alpha virt. eigenvalues --    0.02284   0.02772   0.04307   0.04488   0.04750
 Alpha virt. eigenvalues --    0.07454   0.09701   0.12418   0.12722   0.14317
 Alpha virt. eigenvalues --    0.14424   0.16098   0.16718   0.16777   0.17846
 Alpha virt. eigenvalues --    0.19324   0.20544   0.22143   0.31511   0.31874
 Alpha virt. eigenvalues --    0.33338   0.34177   0.34580   0.34771   0.34813
 Alpha virt. eigenvalues --    0.36827   0.37223   0.38259   0.38371   0.42565
 Alpha virt. eigenvalues --    0.45451   0.50274   0.51131   0.62164   0.67623
 Alpha virt. eigenvalues --    0.72375   0.73372   0.74692   0.74995   0.78317
 Alpha virt. eigenvalues --    0.80324   0.80808   0.82124   0.84396   0.84651
 Alpha virt. eigenvalues --    0.87050   0.88228   0.88886   0.92464   0.94251
 Alpha virt. eigenvalues --    0.96815   0.96885   1.00057   1.04393   1.05241
 Alpha virt. eigenvalues --    1.09236   1.35517   1.48330   1.49680   1.53978
 Alpha virt. eigenvalues --    1.60095   1.62205   1.70688   3.76248  11.04517
 Alpha virt. eigenvalues --   16.18104
     Molecular Orbital Coefficients:
                           1         2         3         4         5
                           O         O         O         O         O
     Eigenvalues --   -19.14345 -19.14341 -19.14099 -19.13735 -19.13735
   1 1   Ti 1S         -0.00001  -0.00001   0.00079   0.00095   0.00124
   2        2S          0.00005   0.00005   0.00022   0.00027   0.00035
   3        3S          0.00029   0.00028  -0.00033  -0.00031  -0.00040
   4        4PX        -0.00003  -0.00003  -0.00010   0.00009   0.00012
   5        4PY        -0.00001   0.00001   0.00000  -0.00019   0.00015
   6        4PZ         0.00000   0.00000  -0.00017  -0.00002  -0.00002
   7        5PX         0.00022   0.00022  -0.00208   0.00156   0.00205
   8        5PY        -0.00013   0.00013   0.00000  -0.00039   0.00030
   9        5PZ        -0.00002  -0.00002  -0.00020  -0.00008  -0.00010
  10        6PX        -0.00008  -0.00008  -0.00016   0.00010   0.00013
  11        6PY         0.00026  -0.00026  -0.00000   0.00037  -0.00029
  12        6PZ        -0.00003  -0.00003   0.00038   0.00002   0.00002
  13        7D 0       -0.00002  -0.00002   0.00002  -0.00003  -0.00004
  14        7D+1        0.00000   0.00000   0.00007  -0.00001  -0.00001
  15        7D-1        0.00000  -0.00000  -0.00000   0.00002  -0.00001
  16        7D+2        0.00001   0.00001   0.00003   0.00000   0.00001
  17        7D-2        0.00001  -0.00001  -0.00000  -0.00008   0.00006
  18        8D 0        0.00001   0.00001  -0.00004  -0.00050  -0.00066
  19        8D+1       -0.00000  -0.00000   0.00051  -0.00029  -0.00038
  20        8D-1        0.00002  -0.00002  -0.00000   0.00009  -0.00007
  21        8D+2       -0.00008  -0.00009   0.00070   0.00037   0.00049
  22        8D-2       -0.00034   0.00035  -0.00000  -0.00073   0.00056
  23 2   Ti 1S         -0.00001  -0.00001   0.00029   0.00010   0.00013
  24        2S         -0.00000  -0.00000   0.00012   0.00002   0.00003
  25        3S         -0.00023  -0.00023   0.00119  -0.00061  -0.00080
  26        4PX        -0.00000  -0.00000  -0.00002  -0.00009  -0.00012
  27        4PY         0.00001  -0.00001   0.00000  -0.00015   0.00012
  28        4PZ         0.00000   0.00000  -0.00000   0.00004   0.00005
  29        5PX         0.00012   0.00012  -0.00057  -0.00011  -0.00015
  30        5PY         0.00010  -0.00011   0.00000  -0.00028   0.00022
  31        5PZ        -0.00002  -0.00002   0.00008  -0.00005  -0.00006
  32        6PX         0.00006   0.00006  -0.00012   0.00017   0.00023
  33        6PY        -0.00009   0.00009   0.00000  -0.00001   0.00001
  34        6PZ         0.00000   0.00000  -0.00012  -0.00005  -0.00006
  35        7D 0        0.00000   0.00000  -0.00001  -0.00004  -0.00005
  36        7D+1        0.00000   0.00000  -0.00001  -0.00000  -0.00001
  37        7D-1       -0.00000   0.00000   0.00000  -0.00002   0.00002
  38        7D+2        0.00000   0.00000  -0.00001   0.00000   0.00000
  39        7D-2        0.00001  -0.00001  -0.00000   0.00012  -0.00009
  40        8D 0        0.00000   0.00000  -0.00005  -0.00025  -0.00033
  41        8D+1       -0.00000  -0.00000   0.00015  -0.00013  -0.00017
  42        8D-1        0.00000  -0.00000  -0.00000  -0.00001   0.00001
  43        8D+2       -0.00003  -0.00003   0.00008   0.00005   0.00006
  44        8D-2       -0.00008   0.00008  -0.00000   0.00028  -0.00022
  45 3   O  1S          0.00006  -0.00010   0.00006   0.99003   0.13240
  46        2S          0.00003  -0.00005   0.00001   0.00636   0.00093
  47        3S         -0.00015   0.00018  -0.00000  -0.00432  -0.00096
  48        4PX         0.00001   0.00001   0.00001  -0.00001  -0.00000
  49        4PY        -0.00001  -0.00000   0.00003   0.00077   0.00005
  50        4PZ         0.00000  -0.00000   0.00001  -0.00001  -0.00000
  51        5PX         0.00003  -0.00007  -0.00007   0.00004  -0.00001
  52        5PY         0.00002   0.00005  -0.00023  -0.00087  -0.00021
  53        5PZ        -0.00002   0.00003  -0.00006   0.00001   0.00001
  54 4   O  1S         -0.00009   0.00006   0.00006  -0.13239   0.99003
  55        2S         -0.00005   0.00004   0.00001  -0.00078   0.00638
  56        3S          0.00018  -0.00016  -0.00000   0.00021  -0.00442
  57        4PX         0.00001   0.00001   0.00001  -0.00000  -0.00001
  58        4PY         0.00000   0.00001  -0.00003   0.00015  -0.00076
  59        4PZ        -0.00000   0.00000   0.00001   0.00000  -0.00001
  60        5PX        -0.00007   0.00004  -0.00007  -0.00002   0.00004
  61        5PY        -0.00005  -0.00002   0.00023  -0.00003   0.00090
  62        5PZ         0.00003  -0.00002  -0.00006   0.00000   0.00001
  63 5   O  1S         -0.00000  -0.00000  -0.00011   0.00065   0.00086
  64        2S         -0.00001  -0.00001   0.00011   0.00006   0.00008
  65        3S          0.00012   0.00012  -0.00052  -0.00022  -0.00028
  66        4PX        -0.00002  -0.00002   0.00000  -0.00001  -0.00001
  67        4PY         0.00001  -0.00001  -0.00000   0.00002  -0.00001
  68        4PZ        -0.00002  -0.00002   0.00006  -0.00003  -0.00004
  69        5PX         0.00013   0.00013  -0.00001  -0.00001  -0.00001
  70        5PY         0.00001  -0.00001  -0.00000  -0.00010   0.00008
  71        5PZ         0.00007   0.00007   0.00008   0.00025   0.00033
  72 6   O  1S         -0.00001  -0.00001   0.99884  -0.00006  -0.00007
  73        2S         -0.00001  -0.00001   0.00644   0.00001   0.00001
  74        3S          0.00013   0.00013  -0.00442   0.00002   0.00002
  75        4PX        -0.00002  -0.00002  -0.00001  -0.00000  -0.00001
  76        4PY         0.00000  -0.00000  -0.00000   0.00000  -0.00000
  77        4PZ         0.00002   0.00002   0.00079   0.00002   0.00002
  78        5PX         0.00011   0.00011   0.00003   0.00005   0.00007
  79        5PY         0.00002  -0.00002   0.00000  -0.00002   0.00002
  80        5PZ        -0.00006  -0.00006  -0.00091  -0.00018  -0.00024
  81 7   O  1S         -0.00000  -0.00000   0.00001   0.00000   0.00001
  82        2S         -0.00000  -0.00000   0.00002   0.00000   0.00000
  83        3S          0.00001   0.00001  -0.00009   0.00008   0.00010
  84        4PX        -0.00000  -0.00000   0.00001  -0.00002  -0.00002
  85        4PY        -0.00000   0.00000   0.00000   0.00002  -0.00001
  86        4PZ        -0.00000  -0.00000   0.00000  -0.00001  -0.00002
  87        5PX         0.00000   0.00000  -0.00007   0.00008   0.00011
  88        5PY         0.00001  -0.00001  -0.00000  -0.00005   0.00004
  89        5PZ         0.00000   0.00000   0.00003   0.00008   0.00010
  90 8   Ti 1S          0.00099   0.00098   0.00035   0.00009   0.00012
  91        2S          0.00025   0.00025   0.00012   0.00005   0.00007
  92        3S         -0.00037  -0.00036  -0.00098   0.00089   0.00116
  93        4PX        -0.00004  -0.00004   0.00011   0.00002   0.00003
  94        4PY         0.00005  -0.00005   0.00000   0.00001  -0.00001
  95        4PZ         0.00000   0.00000  -0.00015   0.00000   0.00000
  96        5PX        -0.00060  -0.00059   0.00018   0.00041   0.00053
  97        5PY         0.00061  -0.00061   0.00000  -0.00002   0.00002
  98        5PZ        -0.00000  -0.00000  -0.00033  -0.00004  -0.00006
  99        6PX         0.00019   0.00019  -0.00024   0.00009   0.00012
 100        6PY        -0.00039   0.00039   0.00000  -0.00017   0.00013
 101        6PZ         0.00001   0.00001  -0.00002   0.00001   0.00001
 102        7D 0       -0.00006  -0.00005   0.00000   0.00002   0.00002
 103        7D+1        0.00000   0.00000  -0.00010   0.00001   0.00001
 104        7D-1        0.00000   0.00000  -0.00000   0.00000  -0.00000
 105        7D+2       -0.00001  -0.00001   0.00002   0.00001   0.00002
 106        7D-2       -0.00001   0.00001   0.00000   0.00002  -0.00002
 107        8D 0       -0.00030  -0.00030   0.00012  -0.00002  -0.00002
 108        8D+1        0.00001   0.00001  -0.00031  -0.00004  -0.00005
 109        8D-1       -0.00002   0.00002  -0.00000   0.00001  -0.00001
 110        8D+2       -0.00045  -0.00044   0.00051  -0.00004  -0.00005
 111        8D-2       -0.00070   0.00072   0.00000  -0.00039   0.00030
 112 9   O  1S          0.00535   0.99880   0.00001   0.00010  -0.00004
 113        2S          0.00007   0.00649   0.00001  -0.00005   0.00002
 114        3S         -0.00003  -0.00434   0.00006   0.00020  -0.00013
 115        4PX         0.00003  -0.00044   0.00001   0.00002  -0.00001
 116        4PY         0.00003  -0.00053   0.00003  -0.00001  -0.00001
 117        4PZ         0.00000  -0.00001   0.00001  -0.00000   0.00000
 118        5PX        -0.00031   0.00043   0.00000  -0.00009   0.00005
 119        5PY        -0.00015   0.00050  -0.00018   0.00009   0.00002
 120        5PZ        -0.00001   0.00001  -0.00004   0.00000  -0.00001
 121 10  H  1S         -0.00005   0.00008  -0.00005  -0.00001   0.00003
 122        2S         -0.00011   0.00102   0.00005  -0.00001  -0.00001
 123 11  O  1S          0.99880  -0.00535   0.00001  -0.00007   0.00008
 124        2S          0.00649   0.00000   0.00001   0.00003  -0.00004
 125        3S         -0.00434   0.00002   0.00006  -0.00018   0.00016
 126        4PX        -0.00043   0.00004   0.00001  -0.00002   0.00001
 127        4PY         0.00053  -0.00003  -0.00003   0.00001   0.00001
 128        4PZ        -0.00001   0.00000   0.00001   0.00000  -0.00000
 129        5PX         0.00042  -0.00031   0.00000   0.00008  -0.00007
 130        5PY        -0.00051   0.00016   0.00018   0.00001  -0.00009
 131        5PZ         0.00001  -0.00001  -0.00004  -0.00001   0.00000
 132 12  H  1S          0.00008  -0.00005  -0.00005   0.00003  -0.00000
 133        2S          0.00102  -0.00012   0.00005  -0.00001  -0.00001
                           6         7         8         9        10
                           O         O         O         O         O
     Eigenvalues --   -19.13605 -19.12369  -2.46312  -2.45659  -2.44802
   1 1   Ti 1S          0.00118  -0.00003   0.00006  -0.01052   0.00269
   2        2S          0.00027   0.00002   0.13547   0.98775  -0.10286
   3        3S         -0.00006   0.00017  -0.00049   0.00807   0.00306
   4        4PX        -0.00009   0.00002  -0.00123   0.00171   0.00120
   5        4PY        -0.00000   0.00000  -0.00000  -0.00000   0.00000
   6        4PZ         0.00014  -0.00000  -0.00036  -0.00242  -0.00007
   7        5PX        -0.00159  -0.00030  -0.00038  -0.00024   0.00118
   8        5PY        -0.00000   0.00000  -0.00000  -0.00000  -0.00000
   9        5PZ         0.00040  -0.00025   0.00020  -0.00079  -0.00002
  10        6PX        -0.00007  -0.00005   0.00090  -0.00042   0.00060
  11        6PY        -0.00000  -0.00000   0.00001   0.00000   0.00000
  12        6PZ        -0.00025   0.00023  -0.00013   0.00027   0.00031
  13        7D 0        0.00001   0.00000  -0.00058  -0.00079  -0.00024
  14        7D+1       -0.00009  -0.00001  -0.00004   0.00016  -0.00036
  15        7D-1       -0.00000   0.00000   0.00000   0.00000  -0.00000
  16        7D+2        0.00003  -0.00000   0.00094   0.00149   0.00058
  17        7D-2        0.00000   0.00000   0.00000  -0.00000   0.00000
  18        8D 0       -0.00011  -0.00003  -0.00350   0.00350   0.00139
  19        8D+1       -0.00073   0.00013   0.00114   0.00141   0.00132
  20        8D-1       -0.00000   0.00000   0.00000  -0.00000  -0.00000
  21        8D+2        0.00097  -0.00003  -0.00097  -0.00500   0.00423
  22        8D-2        0.00000  -0.00000  -0.00001   0.00000  -0.00000
  23 2   Ti 1S          0.00004   0.00102   0.00058  -0.00081  -0.01002
  24        2S          0.00003   0.00046   0.00690   0.10146   0.99619
  25        3S          0.00076   0.00001  -0.00113  -0.00278   0.00005
  26        4PX        -0.00002   0.00013   0.00007  -0.00130   0.00208
  27        4PY         0.00000  -0.00000   0.00000  -0.00000  -0.00000
  28        4PZ        -0.00001   0.00025   0.00018   0.00213   0.01849
  29        5PX        -0.00033   0.00039  -0.00059   0.00269   0.00449
  30        5PY        -0.00000  -0.00000   0.00000  -0.00000   0.00000
  31        5PZ         0.00018   0.00090  -0.00022   0.00082  -0.00234
  32        6PX        -0.00008  -0.00015   0.00044   0.00010  -0.00094
  33        6PY         0.00000   0.00000  -0.00000  -0.00000  -0.00000
  34        6PZ         0.00011  -0.00039   0.00003  -0.00051  -0.00025
  35        7D 0       -0.00003  -0.00002  -0.00002  -0.00039  -0.00034
  36        7D+1        0.00001  -0.00000  -0.00006  -0.00050  -0.00209
  37        7D-1        0.00000   0.00000  -0.00000  -0.00000   0.00000
  38        7D+2       -0.00001   0.00000   0.00002   0.00100   0.00043
  39        7D-2       -0.00000  -0.00000   0.00000   0.00000   0.00000
  40        8D 0        0.00009   0.00026   0.00014   0.00275  -0.00019
  41        8D+1       -0.00020   0.00036   0.00066   0.00129   0.00169
  42        8D-1       -0.00000  -0.00000   0.00000  -0.00000   0.00000
  43        8D+2       -0.00009   0.00014   0.00096   0.00203  -0.00187
  44        8D-2        0.00000  -0.00000  -0.00000   0.00000  -0.00000
  45 3   O  1S         -0.00076  -0.00000  -0.00040  -0.00326  -0.00210
  46        2S          0.00007   0.00003   0.00113   0.00582   0.00371
  47        3S         -0.00024  -0.00006  -0.00084   0.00692   0.00445
  48        4PX         0.00002  -0.00001  -0.00071  -0.00479   0.00489
  49        4PY         0.00003  -0.00000   0.00057   0.00525   0.00348
  50        4PZ        -0.00001  -0.00001   0.00015   0.00075  -0.00081
  51        5PX        -0.00009  -0.00003   0.00102   0.00412  -0.00349
  52        5PY        -0.00034  -0.00004  -0.00010  -0.00055  -0.00133
  53        5PZ         0.00008   0.00002  -0.00052  -0.00049   0.00081
  54 4   O  1S         -0.00076  -0.00000  -0.00040  -0.00326  -0.00210
  55        2S          0.00007   0.00003   0.00113   0.00582   0.00371
  56        3S         -0.00024  -0.00006  -0.00083   0.00692   0.00445
  57        4PX         0.00002  -0.00001  -0.00071  -0.00479   0.00489
  58        4PY        -0.00003   0.00000  -0.00057  -0.00525  -0.00348
  59        4PZ        -0.00001  -0.00001   0.00015   0.00075  -0.00081
  60        5PX        -0.00009  -0.00003   0.00101   0.00412  -0.00349
  61        5PY         0.00034   0.00004   0.00010   0.00055   0.00133
  62        5PZ         0.00008   0.00002  -0.00052  -0.00049   0.00081
  63 5   O  1S          0.99884   0.00002  -0.00326  -0.00200   0.00025
  64        2S          0.00650  -0.00003   0.00607   0.00297  -0.00005
  65        3S         -0.00464   0.00008   0.00597   0.00700  -0.00207
  66        4PX        -0.00002  -0.00002  -0.00437   0.00518  -0.00046
  67        4PY         0.00000  -0.00000   0.00000   0.00000  -0.00000
  68        4PZ        -0.00077  -0.00001  -0.00535  -0.00321   0.00049
  69        5PX        -0.00012   0.00010   0.00335  -0.00401   0.00004
  70        5PY        -0.00000   0.00000   0.00000  -0.00000  -0.00000
  71        5PZ         0.00095   0.00001   0.00169  -0.00030   0.00010
  72 6   O  1S          0.00012  -0.00001  -0.00299  -0.00252   0.00031
  73        2S          0.00011   0.00001   0.00564   0.00441   0.00002
  74        3S         -0.00052  -0.00005   0.00523   0.00575  -0.00312
  75        4PX        -0.00000  -0.00001  -0.00402   0.00568  -0.00057
  76        4PY         0.00000  -0.00000  -0.00000  -0.00000   0.00000
  77        4PZ        -0.00005  -0.00000   0.00484   0.00409  -0.00059
  78        5PX         0.00005  -0.00000   0.00289  -0.00482   0.00000
  79        5PY         0.00000   0.00000   0.00000  -0.00000   0.00000
  80        5PZ        -0.00015   0.00001  -0.00158  -0.00016  -0.00013
  81 7   O  1S         -0.00002   0.99884  -0.00004  -0.00059  -0.00608
  82        2S         -0.00002   0.00610   0.00021   0.00173   0.01295
  83        3S          0.00008  -0.00345  -0.00054  -0.00206   0.00238
  84        4PX        -0.00001  -0.00040  -0.00003  -0.00050  -0.00674
  85        4PY        -0.00000   0.00000  -0.00000   0.00000   0.00000
  86        4PZ         0.00002  -0.00066  -0.00008  -0.00102  -0.01119
  87        5PX         0.00007   0.00032  -0.00007  -0.00029   0.00226
  88        5PY         0.00000  -0.00000   0.00000  -0.00000  -0.00000
  89        5PZ        -0.00010   0.00055   0.00024   0.00021   0.00526
  90 8   Ti 1S          0.00037  -0.00000  -0.00844   0.00207   0.00028
  91        2S          0.00013   0.00001   0.99491  -0.13673   0.00675
  92        3S         -0.00082  -0.00033   0.00604  -0.00463  -0.00092
  93        4PX         0.00010   0.00001   0.00569   0.00063  -0.00039
  94        4PY         0.00000  -0.00000   0.00000  -0.00000   0.00000
  95        4PZ         0.00015   0.00001   0.00072  -0.00009   0.00001
  96        5PX         0.00021  -0.00015  -0.00488  -0.00317   0.00041
  97        5PY        -0.00000  -0.00000  -0.00000   0.00000  -0.00000
  98        5PZ         0.00021   0.00010   0.00011   0.00057   0.00020
  99        6PX        -0.00024  -0.00003   0.00116  -0.00003  -0.00083
 100        6PY         0.00000   0.00000  -0.00000  -0.00000  -0.00000
 101        6PZ        -0.00002  -0.00006  -0.00001  -0.00017  -0.00013
 102        7D 0        0.00002  -0.00000  -0.00134  -0.00053   0.00015
 103        7D+1        0.00010  -0.00000  -0.00013  -0.00002  -0.00003
 104        7D-1       -0.00000  -0.00000   0.00000   0.00000  -0.00000
 105        7D+2        0.00002   0.00000   0.00009   0.00090  -0.00015
 106        7D-2       -0.00000   0.00000  -0.00001   0.00000  -0.00000
 107        8D 0        0.00012   0.00004   0.00010  -0.00385   0.00011
 108        8D+1        0.00023   0.00007   0.00014   0.00043   0.00020
 109        8D-1       -0.00000  -0.00000  -0.00000   0.00000   0.00000
 110        8D+2        0.00046  -0.00001  -0.00308  -0.00326   0.00037
 111        8D-2       -0.00000  -0.00000  -0.00001   0.00001  -0.00000
 112 9   O  1S          0.00000   0.00000  -0.00339   0.00050  -0.00003
 113        2S          0.00002  -0.00000   0.00652  -0.00034   0.00000
 114        3S          0.00005   0.00000   0.00524  -0.00333   0.00028
 115        4PX         0.00001  -0.00000   0.00417  -0.00053   0.00006
 116        4PY         0.00003   0.00000   0.00692  -0.00107   0.00008
 117        4PZ        -0.00001   0.00000   0.00012  -0.00001  -0.00000
 118        5PX        -0.00001   0.00001  -0.00563  -0.00019  -0.00016
 119        5PY        -0.00017   0.00000  -0.00762   0.00127  -0.00026
 120        5PZ         0.00004   0.00000  -0.00015  -0.00002   0.00002
 121 10  H  1S         -0.00005  -0.00000  -0.00072   0.00038  -0.00008
 122        2S          0.00005   0.00002  -0.00792   0.00039  -0.00010
 123 11  O  1S          0.00000   0.00000  -0.00339   0.00050  -0.00003
 124        2S          0.00002  -0.00000   0.00653  -0.00034   0.00000
 125        3S          0.00005   0.00000   0.00522  -0.00333   0.00028
 126        4PX         0.00001  -0.00000   0.00417  -0.00053   0.00006
 127        4PY        -0.00003  -0.00000  -0.00693   0.00107  -0.00008
 128        4PZ        -0.00001   0.00000   0.00012  -0.00001  -0.00000
 129        5PX        -0.00001   0.00001  -0.00559  -0.00019  -0.00016
 130        5PY         0.00017  -0.00000   0.00765  -0.00128   0.00026
 131        5PZ         0.00004   0.00000  -0.00015  -0.00003   0.00002
 132 12  H  1S         -0.00005  -0.00000  -0.00072   0.00039  -0.00008
 133        2S          0.00005   0.00002  -0.00793   0.00039  -0.00010
                          11        12        13        14        15
                           O         O         O         O         O
     Eigenvalues --    -1.59595  -1.58662  -1.58180  -1.57967  -1.57536
   1 1   Ti 1S         -0.00115  -0.00001   0.00547  -0.00075  -0.00000
   2        2S          0.00182   0.00001  -0.01266   0.00127   0.00000
   3        3S         -0.00105  -0.00011  -0.00479   0.00521   0.00001
   4        4PX         0.70595  -0.00115   0.47686   0.04276  -0.00004
   5        4PY        -0.00001   0.04830   0.00003  -0.00012   0.97400
   6        4PZ        -0.00878   0.00004  -0.09250   0.33489  -0.00003
   7        5PX        -0.01980   0.00008   0.00204   0.00678  -0.00001
   8        5PY        -0.00000  -0.00165   0.00000   0.00000   0.00624
   9        5PZ         0.00113  -0.00000   0.00001  -0.01033  -0.00000
  10        6PX        -0.00527   0.00001   0.00062   0.00389  -0.00000
  11        6PY         0.00000  -0.00296  -0.00001  -0.00000  -0.00385
  12        6PZ         0.00038  -0.00000   0.00021   0.00449   0.00000
  13        7D 0       -0.00189   0.00001  -0.00498  -0.00032   0.00000
  14        7D+1       -0.00238   0.00000  -0.00181  -0.00310   0.00000
  15        7D-1        0.00000  -0.00010   0.00000  -0.00000  -0.00162
  16        7D+2       -0.00321  -0.00000   0.00466  -0.00038   0.00000
  17        7D-2       -0.00000  -0.00013  -0.00000   0.00000   0.00641
  18        8D 0        0.00433   0.00002  -0.00689  -0.00042   0.00000
  19        8D+1       -0.00011  -0.00000   0.00103   0.00335   0.00000
  20        8D-1       -0.00000   0.00043   0.00000   0.00000  -0.00112
  21        8D+2        0.00024  -0.00001   0.00387  -0.00017   0.00000
  22        8D-2       -0.00001  -0.00545  -0.00000  -0.00000   0.00931
  23 2   Ti 1S          0.00466  -0.00001   0.00195  -0.00023  -0.00000
  24        2S         -0.00528   0.00001  -0.00156  -0.00109   0.00001
  25        3S          0.01383  -0.00001  -0.00088  -0.00931   0.00000
  26        4PX        -0.23371   0.00067  -0.46099   0.02886  -0.00015
  27        4PY        -0.00000   0.00438   0.00002  -0.00002   0.18369
  28        4PZ         0.00724   0.00004  -0.08108   0.03515  -0.00017
  29        5PX        -0.01025   0.00001  -0.00088   0.00491  -0.00000
  30        5PY         0.00000   0.00163   0.00000   0.00000  -0.01017
  31        5PZ         0.00353  -0.00000  -0.00005   0.00200  -0.00000
  32        6PX         0.00108  -0.00001  -0.00036  -0.00020   0.00000
  33        6PY        -0.00000   0.00113   0.00001   0.00000   0.00460
  34        6PZ        -0.00015   0.00000   0.00021  -0.00230   0.00000
  35        7D 0       -0.00324   0.00001  -0.00572   0.00068  -0.00000
  36        7D+1       -0.00369   0.00001  -0.00713   0.00063  -0.00000
  37        7D-1        0.00000   0.00001   0.00000  -0.00000   0.00146
  38        7D+2        0.00292  -0.00000   0.00183   0.00014  -0.00000
  39        7D-2        0.00000   0.00005   0.00000   0.00000  -0.00246
  40        8D 0        0.00166  -0.00000   0.00189   0.00088   0.00000
  41        8D+1       -0.00076  -0.00000   0.00208  -0.00092   0.00000
  42        8D-1       -0.00000   0.00006  -0.00000   0.00000  -0.00121
  43        8D+2        0.00351  -0.00001   0.00187  -0.00090  -0.00000
  44        8D-2       -0.00000  -0.00127  -0.00000  -0.00000   0.00530
  45 3   O  1S         -0.01232   0.00068  -0.01209   0.00041   0.01402
  46        2S          0.02618  -0.00106   0.02732  -0.00078  -0.03255
  47        3S          0.01929  -0.00315   0.01335  -0.00077  -0.01497
  48        4PX        -0.00669   0.00090  -0.00101   0.00012   0.01528
  49        4PY         0.01816  -0.00078   0.01783  -0.00062  -0.01503
  50        4PZ         0.00152  -0.00009  -0.00046   0.00211  -0.00236
  51        5PX         0.00194   0.00042   0.00018   0.00024  -0.00604
  52        5PY         0.00020   0.00012  -0.00120   0.00026   0.00530
  53        5PZ        -0.00013  -0.00034  -0.00112   0.00027   0.00096
  54 4   O  1S         -0.01232  -0.00064  -0.01209   0.00041  -0.01402
  55        2S          0.02617   0.00095   0.02732  -0.00079   0.03255
  56        3S          0.01930   0.00309   0.01335  -0.00077   0.01497
  57        4PX        -0.00669  -0.00089  -0.00101   0.00012  -0.01528
  58        4PY        -0.01816  -0.00071  -0.01783   0.00063  -0.01504
  59        4PZ         0.00151   0.00009  -0.00047   0.00211   0.00235
  60        5PX         0.00193  -0.00042   0.00018   0.00024   0.00604
  61        5PY        -0.00020   0.00012   0.00120  -0.00026   0.00530
  62        5PZ        -0.00012   0.00034  -0.00112   0.00027  -0.00096
  63 5   O  1S          0.01685  -0.00000  -0.00342  -0.01432   0.00000
  64        2S         -0.03647   0.00000   0.00846   0.03316  -0.00001
  65        3S         -0.02474  -0.00001   0.00107   0.01719  -0.00000
  66        4PX        -0.00045   0.00003  -0.01855  -0.01278  -0.00001
  67        4PY        -0.00001   0.00567   0.00001   0.00001   0.00425
  68        4PZ         0.02501   0.00000  -0.00589  -0.01548   0.00000
  69        5PX        -0.00180  -0.00002   0.00895   0.00611   0.00000
  70        5PY         0.00000   0.00076  -0.00000  -0.00000   0.00131
  71        5PZ        -0.00073   0.00000   0.00205   0.00584   0.00000
  72 6   O  1S          0.01705  -0.00001  -0.00357   0.01445  -0.00000
  73        2S         -0.03697   0.00002   0.00884  -0.03374   0.00000
  74        3S         -0.02484   0.00000   0.00209  -0.01667   0.00000
  75        4PX        -0.00101   0.00002  -0.01531   0.00918   0.00001
  76        4PY         0.00001   0.00512   0.00001   0.00001   0.00532
  77        4PZ        -0.02534   0.00001   0.00505  -0.01559   0.00000
  78        5PX        -0.00091  -0.00002   0.00823  -0.00467  -0.00000
  79        5PY         0.00000   0.00116   0.00000  -0.00000   0.00051
  80        5PZ         0.00064  -0.00000  -0.00223   0.00604  -0.00000
  81 7   O  1S          0.00367  -0.00001   0.00985  -0.00140   0.00001
  82        2S         -0.00767   0.00003  -0.02089   0.00337  -0.00002
  83        3S         -0.00505   0.00002  -0.01217   0.00059  -0.00001
  84        4PX         0.00153  -0.00001   0.00561  -0.00124   0.00001
  85        4PY        -0.00000   0.00003  -0.00000   0.00000   0.00183
  86        4PZ         0.00651  -0.00002   0.01588  -0.00202   0.00001
  87        5PX        -0.00055   0.00000  -0.00134   0.00067  -0.00000
  88        5PY         0.00000   0.00013   0.00000  -0.00000   0.00068
  89        5PZ        -0.00158   0.00000  -0.00181   0.00011  -0.00000
  90 8   Ti 1S         -0.00503   0.00001  -0.00140   0.00019   0.00000
  91        2S          0.01234  -0.00001  -0.00317  -0.00053  -0.00000
  92        3S         -0.00971   0.00012  -0.00018   0.00451  -0.00001
  93        4PX        -0.62748  -0.00060   0.72244   0.00803  -0.00005
  94        4PY         0.00064   0.99063   0.00132   0.00001  -0.04992
  95        4PZ        -0.01630   0.00002   0.02396   0.93184   0.00016
  96        5PX        -0.01077   0.00007   0.00443   0.00188  -0.00001
  97        5PY         0.00000   0.01056   0.00001  -0.00000   0.00150
  98        5PZ        -0.00080   0.00000   0.00084   0.00607   0.00000
  99        6PX         0.00104   0.00002   0.00010  -0.00068  -0.00000
 100        6PY         0.00000   0.00105   0.00000   0.00000   0.00050
 101        6PZ        -0.00003   0.00000  -0.00041  -0.00225  -0.00000
 102        7D 0        0.00051  -0.00001   0.00276   0.00077   0.00000
 103        7D+1       -0.00053  -0.00000   0.00045   0.00878   0.00000
 104        7D-1        0.00000  -0.00007  -0.00000  -0.00000  -0.00002
 105        7D+2       -0.01037  -0.00001   0.00637   0.00016   0.00000
 106        7D-2       -0.00000  -0.00647  -0.00001  -0.00000   0.00069
 107        8D 0        0.00257  -0.00002   0.00592   0.00045  -0.00000
 108        8D+1       -0.00031   0.00000   0.00013   0.00368   0.00000
 109        8D-1       -0.00000  -0.00003  -0.00000   0.00000  -0.00012
 110        8D+2        0.00029   0.00006   0.00139  -0.00014  -0.00001
 111        8D-2       -0.00002  -0.00506   0.00000  -0.00000   0.00786
 112 9   O  1S         -0.00647   0.01710   0.00756   0.00037  -0.00085
 113        2S          0.01372  -0.03764  -0.01693  -0.00083   0.00234
 114        3S          0.01117  -0.02433  -0.00941  -0.00056  -0.00152
 115        4PX         0.00244  -0.01740  -0.00301  -0.00036   0.00057
 116        4PY         0.01120  -0.02346  -0.01298  -0.00067   0.00125
 117        4PZ         0.00009  -0.00052  -0.00009   0.00622   0.00003
 118        5PX        -0.00378   0.01075   0.00610   0.00033   0.00117
 119        5PY        -0.00585   0.01833   0.00738   0.00060  -0.00218
 120        5PZ        -0.00009   0.00038   0.00020   0.00113  -0.00012
 121 10  H  1S         -0.00013  -0.00019  -0.00017   0.00003   0.00022
 122        2S         -0.00607   0.01941   0.00858   0.00054  -0.00114
 123 11  O  1S         -0.00648  -0.01714   0.00750   0.00037   0.00085
 124        2S          0.01375   0.03770  -0.01682  -0.00081  -0.00233
 125        3S          0.01117   0.02441  -0.00932  -0.00055   0.00150
 126        4PX         0.00244   0.01741  -0.00294  -0.00036  -0.00057
 127        4PY        -0.01122  -0.02351   0.01290   0.00066   0.00125
 128        4PZ         0.00009   0.00051  -0.00008   0.00622  -0.00003
 129        5PX        -0.00376  -0.01066   0.00603   0.00033  -0.00118
 130        5PY         0.00590   0.01843  -0.00736  -0.00059  -0.00219
 131        5PZ        -0.00008  -0.00037   0.00020   0.00112   0.00012
 132 12  H  1S         -0.00013   0.00018  -0.00018   0.00003  -0.00021
 133        2S         -0.00610  -0.01944   0.00852   0.00053   0.00114
                          16        17        18        19        20
                           O         O         O         O         O
     Eigenvalues --    -1.57452  -1.57298  -1.56660  -1.56503  -0.97250
   1 1   Ti 1S         -0.00105  -0.00074  -0.00228  -0.00000   0.00337
   2        2S          0.00171   0.00245   0.00508  -0.00000  -0.01310
   3        3S          0.00338  -0.00098   0.00507  -0.00001  -0.00383
   4        4PX         0.26561  -0.10377   0.39719  -0.00001   0.01567
   5        4PY         0.00025  -0.00010   0.00004  -0.19217   0.00000
   6        4PZ         0.57680   0.72501  -0.10317  -0.00003   0.00162
   7        5PX         0.01060  -0.00928   0.00396   0.00001   0.06621
   8        5PY        -0.00000  -0.00000   0.00000  -0.01320  -0.00002
   9        5PZ         0.00753   0.00890  -0.00114  -0.00000  -0.00447
  10        6PX         0.00358  -0.00406   0.00225   0.00000   0.01053
  11        6PY        -0.00000   0.00000  -0.00000   0.00664  -0.00002
  12        6PZ        -0.00360  -0.00510   0.00039   0.00000  -0.00063
  13        7D 0       -0.00137  -0.00004   0.00018  -0.00000  -0.00098
  14        7D+1       -0.00219  -0.00275  -0.00001  -0.00000   0.00015
  15        7D-1       -0.00000  -0.00000   0.00000   0.00005  -0.00000
  16        7D+2       -0.00112   0.00013  -0.00363  -0.00000   0.00564
  17        7D-2        0.00000   0.00000  -0.00000   0.00048   0.00000
  18        8D 0       -0.00479   0.00264  -0.00368   0.00000   0.00103
  19        8D+1       -0.00322  -0.00974   0.00180  -0.00000  -0.00134
  20        8D-1        0.00000  -0.00000   0.00000   0.00174  -0.00000
  21        8D+2       -0.00052   0.00139  -0.00654  -0.00000  -0.00698
  22        8D-2        0.00001   0.00001  -0.00000  -0.00736   0.00004
  23 2   Ti 1S          0.00499  -0.00563  -0.00620  -0.00000  -0.00454
  24        2S         -0.01965   0.01849   0.00693  -0.00000  -0.00349
  25        3S         -0.01250   0.01161  -0.00371  -0.00000  -0.04333
  26        4PX         0.30894  -0.21858   0.75092   0.00001   0.00347
  27        4PY        -0.00003   0.00009   0.00007   0.97858  -0.00000
  28        4PZ         0.61443  -0.58663  -0.49187   0.00014   0.00029
[...]
  75        4PX         0.03171   0.02315  -0.11296
  76        4PY         0.00002  -0.00001  -0.00004
  77        4PZ        -0.08254   0.12572   0.00892
  78        5PX        -0.06097  -0.00344   0.86486
  79        5PY        -0.00011   0.00009   0.00006
  80        5PZ         0.41652  -0.68564   0.05381
  81 7   O  1S          0.01266   0.00032  -0.00090
  82        2S         -0.60924  -0.24824  -0.07784
  83        3S          1.38538   0.61456   0.31264
  84        4PX         0.02046   0.02188  -0.03006
  85        4PY        -0.00002  -0.00001   0.00000
  86        4PZ         0.18969   0.07758  -0.00338
  87        5PX        -0.09891  -0.07886   0.05846
  88        5PY         0.00009   0.00007  -0.00001
  89        5PZ        -0.73869  -0.51060   0.00470
  90 8   Ti 1S         -1.34188   2.52910   5.87156
  91        2S         -0.49683   0.90495   1.87242
  92        3S          3.15132   1.05327   2.00353
  93        4PX         0.05940   0.01572  -0.03337
  94        4PY         0.00010  -0.00002   0.00055
  95        4PZ         0.00440   0.01303   0.01492
  96        5PX         1.99457   0.61381   4.09353
  97        5PY         0.00042   0.00015   0.00077
  98        5PZ         0.02615   0.03365   0.19152
  99        6PX        -0.08271   0.08201  -0.56746
 100        6PY         0.00044  -0.00021   0.00074
 101        6PZ         0.07596   0.09290  -0.01730
 102        7D 0        0.09320  -0.04625  -0.09570
 103        7D+1        0.00273   0.02359  -0.00143
 104        7D-1        0.00001  -0.00003   0.00002
 105        7D+2       -0.04504   0.05419  -0.16892
 106        7D-2       -0.00005  -0.00000  -0.00007
 107        8D 0        0.05194  -0.41036  -0.65671
 108        8D+1       -0.01210  -0.00592   0.11151
 109        8D-1        0.00011   0.00012  -0.00041
 110        8D+2        0.49101  -0.63466   0.76796
 111        8D-2        0.00024  -0.00034  -0.00051
 112 9   O  1S          0.00925   0.00055  -0.00153
 113        2S         -0.35440   0.22188   0.33317
 114        3S          0.72377  -0.64787  -0.75533
 115        4PX        -0.06705   0.05573   0.14275
 116        4PY        -0.14090   0.06197   0.16758
 117        4PZ        -0.00026   0.00414   0.00500
 118        5PX         0.41571  -0.44781  -0.82929
 119        5PY         0.63784  -0.42089  -1.24200
 120        5PZ         0.00567  -0.02095  -0.02535
 121 10  H  1S          0.08197  -0.01156  -0.15797
 122        2S          0.27789  -0.37034  -0.64711
 123 11  O  1S          0.00925   0.00056  -0.00155
 124        2S         -0.35516   0.22225   0.33242
 125        3S          0.72608  -0.64932  -0.75280
 126        4PX        -0.06645   0.05525   0.14248
 127        4PY         0.14079  -0.06219  -0.16854
 128        4PZ        -0.00016   0.00408   0.00486
 129        5PX         0.41254  -0.44516  -0.82737
 130        5PY        -0.63761   0.42198   1.24776
 131        5PZ         0.00513  -0.02060  -0.02437
 132 12  H  1S          0.08182  -0.01108  -0.15815
 133        2S          0.27520  -0.36992  -0.65246
          Condensed to atoms (all electrons):
               1          2          3          4          5          6
     1  Ti  10.596318  -0.251963   0.165244   0.165226   0.134180   0.149208
     2  Ti  -0.251963  10.207864   0.159418   0.159450  -0.007762  -0.016669
     3  O    0.165244   0.159418   8.459019  -0.035989  -0.000330   0.002322
     4  O    0.165226   0.159450  -0.035989   8.459030  -0.000331   0.002324
     5  O    0.134180  -0.007762  -0.000330  -0.000331   8.448154  -0.040296
     6  O    0.149208  -0.016669   0.002322   0.002324  -0.040296   8.454534
     7  O   -0.048737   0.394535   0.000470   0.000471  -0.000006  -0.000002
     8  Ti  -0.285336  -0.018624  -0.013754  -0.013762   0.195965   0.183826
     9  O   -0.028743  -0.000410  -0.000002  -0.000000  -0.001081  -0.000750
    10  H    0.000032   0.000139   0.000000  -0.000000  -0.000033  -0.000010
    11  O   -0.028673  -0.000415  -0.000000  -0.000002  -0.001080  -0.000759
    12  H    0.000032   0.000139  -0.000000   0.000000  -0.000034  -0.000011
               7          8          9         10         11         12
     1  Ti  -0.048737  -0.285336  -0.028743   0.000032  -0.028673   0.000032
     2  Ti   0.394535  -0.018624  -0.000410   0.000139  -0.000415   0.000139
     3  O    0.000470  -0.013754  -0.000002   0.000000  -0.000000  -0.000000
     4  O    0.000471  -0.013762  -0.000000  -0.000000  -0.000002   0.000000
     5  O   -0.000006   0.195965  -0.001081  -0.000033  -0.001080  -0.000034
     6  O   -0.000002   0.183826  -0.000750  -0.000010  -0.000759  -0.000011
     7  O    8.177400  -0.000390  -0.000000  -0.000000  -0.000000  -0.000000
     8  Ti  -0.000390  10.230313   0.205858  -0.011745   0.205847  -0.011743
     9  O   -0.000000   0.205858   8.312487   0.281979  -0.002291  -0.000093
    10  H   -0.000000  -0.011745   0.281979   0.304588  -0.000094   0.000002
    11  O   -0.000000   0.205847  -0.002291  -0.000094   8.312282   0.281982
    12  H   -0.000000  -0.011743  -0.000093   0.000002   0.281982   0.304554
 Mulliken charges:
               1
     1  Ti   1.433211
     2  Ti   1.374296
     3  O   -0.736398
     4  O   -0.736417
     5  O   -0.727345
     6  O   -0.733716
     7  O   -0.523740
     8  Ti   1.333546
     9  O   -0.766954
    10  H    0.425143
    11  O   -0.766797
    12  H    0.425171
 Sum of Mulliken charges =  -0.00000
 Mulliken charges with hydrogens summed into heavy atoms:
               1
     1  Ti   1.433211
     2  Ti   1.374296
     3  O   -0.736398
     4  O   -0.736417
     5  O   -0.727345
     6  O   -0.733716
     7  O   -0.523740
     8  Ti   1.333546
     9  O   -0.341811
    11  O   -0.341626
 Electronic spatial extent (au):  <R**2>=           2644.0147
 Charge=             -0.0000 electrons
 Dipole moment (field-independent basis, Debye):
    X=              0.3789    Y=              0.0123    Z=             -6.3374  Tot=              6.3487
 Quadrupole moment (field-independent basis, Debye-Ang):
   XX=            -59.1458   YY=            -83.8219   ZZ=            -92.0559
   XY=             -0.0066   XZ=            -25.2078   YZ=              0.0091
 Traceless Quadrupole moment (field-independent basis, Debye-Ang):
   XX=             19.1954   YY=             -5.4807   ZZ=            -13.7147
   XY=             -0.0066   XZ=            -25.2078   YZ=              0.0091
 Octapole moment (field-independent basis, Debye-Ang**2):
  XXX=            -57.1821  YYY=              0.1871  ZZZ=            -15.8815  XYY=            -53.8929
  XXY=             -0.0927  XXZ=           -102.7269  XZZ=             12.3261  YZZ=              0.0066
  YYZ=             -1.9608  XYZ=             -0.0247
 Hexadecapole moment (field-independent basis, Debye-Ang**3):
 XXXX=          -2700.3847 YYYY=           -323.6012 ZZZZ=           -273.2531 XXXY=              1.0406
 XXXZ=           -395.9469 YYYX=             -0.4946 YYYZ=              0.0368 ZZZX=            -51.2291
 ZZZY=              0.0129 XXYY=           -387.7940 XXZZ=           -566.7691 YYZZ=           -111.5263
 XXYZ=              0.1051 YYXZ=             -8.3566 ZZXY=             -0.0025
 N-N= 7.092329436421D+02 E-N=-3.032954736528D+03  KE= 5.980158747051D+02
 Orbital energies and kinetic energies (alpha):
                                 1                 2
   1         O               -19.143452         29.124569
   2         O               -19.143407         29.124576
   3         O               -19.140992         29.126317
   4         O               -19.137353         29.126430
   5         O               -19.137347         29.126423
   6         O               -19.136047         29.126265
   7         O               -19.123686         29.127718
   8         O                -2.463118          1.344402
   9         O                -2.456593          1.342012
  10         O                -2.448019          1.341842
  11         O                -1.595951          2.305216
  12         O                -1.586618          2.376734
  13         O                -1.581804          2.368528
  14         O                -1.579667          2.376905
  15         O                -1.575357          2.377649
  16         O                -1.574521          2.374437
  17         O                -1.572982          2.381933
  18         O                -1.566603          2.405251
  19         O                -1.565028          2.389983
  20         O                -0.972502          2.777293
  21         O                -0.966248          2.821594
  22         O                -0.928950          2.906303
  23         O                -0.912908          3.065116
  24         O                -0.908937          3.073390
  25         O                -0.906439          3.065151
  26         O                -0.871022          3.139532
  27         O                -0.518359          2.163602
  28         O                -0.507949          2.302936
  29         O                -0.406984          2.292322
  30         O                -0.395009          2.499323
  31         O                -0.392140          2.504440
  32         O                -0.380476          2.354594
  33         O                -0.372042          2.283323
  34         O                -0.367752          2.256791
  35         O                -0.366663          2.177482
  36         O                -0.362744          2.182419
  37         O                -0.361733          2.316701
  38         O                -0.349290          2.231241
  39         O                -0.343458          2.272775
  40         O                -0.340751          2.186541
  41         O                -0.329076          2.527887
  42         O                -0.327967          2.410907
  43         O                -0.316559          2.397895
  44         O                -0.314669          2.341270
  45         O                -0.307684          2.400469
  46         O                -0.297633          2.395508
  47         O                -0.290550          2.393940
  48         V                -0.096966          3.644211
  49         V                -0.087999          3.712389
  50         V                -0.073780          3.649829
  51         V                -0.065533          3.624972
  52         V                -0.059636          3.694092
  53         V                -0.051827          3.015929
  54         V                -0.040998          4.035989
  55         V                -0.040410          3.840604
  56         V                -0.030484          3.683473
  57         V                -0.020401          3.520395
  58         V                -0.016682          3.720808
  59         V                -0.010306          3.804638
  60         V                -0.005434          0.884221
  61         V                -0.002071          3.222698
  62         V                 0.001914          2.815290
  63         V                 0.004225          2.689012
  64         V                 0.012209          1.798373
  65         V                 0.013156          0.739656
  66         V                 0.017556          1.865636
  67         V                 0.020309          0.687170
  68         V                 0.022844          0.563641
  69         V                 0.027715          0.333392
  70         V                 0.043070          0.227185
  71         V                 0.044882          0.291353
  72         V                 0.047495          0.258679
  73         V                 0.074541          0.672034
  74         V                 0.097012          0.738796
  75         V                 0.124181          0.827473
  76         V                 0.127219          0.830092
  77         V                 0.143175          0.909647
  78         V                 0.144238          0.892737
  79         V                 0.160985          1.179128
  80         V                 0.167181          1.049197
  81         V                 0.167766          1.177246
  82         V                 0.178459          1.135472
  83         V                 0.193238          0.968499
  84         V                 0.205440          1.203387
  85         V                 0.221430          1.151702
  86         V                 0.315110          1.451881
  87         V                 0.318740          1.465340
  88         V                 0.333375          1.446398
  89         V                 0.341774          1.431946
  90         V                 0.345805          1.378221
  91         V                 0.347714          1.631655
  92         V                 0.348128          1.473401
  93         V                 0.368266          1.485401
  94         V                 0.372226          1.360999
  95         V                 0.382588          1.462953
  96         V                 0.383714          1.328101
  97         V                 0.425648          2.162967
  98         V                 0.454512          1.653548
  99         V                 0.502739          1.573845
 100         V                 0.511310          1.675330
 101         V                 0.621641          2.029001
 102         V                 0.676228          2.849496
 103         V                 0.723749          2.870285
 104         V                 0.733721          2.959235
 105         V                 0.746920          2.889272
 106         V                 0.749952          2.876361
 107         V                 0.783174          2.864137
 108         V                 0.803239          3.028495
 109         V                 0.808081          2.899976
 110         V                 0.821243          3.247573
 111         V                 0.843961          2.944092
 112         V                 0.846515          2.816660
 113         V                 0.870498          2.916625
 114         V                 0.882285          3.093839
 115         V                 0.888862          2.926721
 116         V                 0.924641          3.010895
 117         V                 0.942505          2.951871
 118         V                 0.968145          3.058766
 119         V                 0.968849          3.325642
 120         V                 1.000573          3.203518
 121         V                 1.043932          2.971877
 122         V                 1.052411          2.947888
 123         V                 1.092361          3.347792
 124         V                 1.355169          3.788442
 125         V                 1.483297          3.989342
 126         V                 1.496804          4.111206
 127         V                 1.539783          4.346838
 128         V                 1.600951          4.210444
 129         V                 1.622050          4.185708
 130         V                 1.706885          4.201458
 131         V                 3.762480          2.418339
 132         V                11.045171          3.018029
 133         V                16.181039          4.132124
 Total kinetic energy from orbitals= 5.980158747051D+02
 No NMR shielding tensors so no spin-rotation constants.
 Leave Link  601 at Mon Jun  7 17:28:38 2021, MaxMem=   536870912 cpu:               3.2 elap:               0.5
 (Enter /home/rheinheimer/Apps//g16/l602.exe)
 FitSet:  NAtFit=    12 NAtPot=    12 NAtFrz=     0 MDM=    16 TotChg=   0.00000
 Francl (CHELP) atomic radii used.
 Read replacement radii for each type of atom:
 Rad(22) =   2.460000000000D+02
 Atom Element Radius
    1    22  246.00
    2    22  246.00
    3     8    1.55
    4     8    1.55
    5     8    1.55
    6     8    1.55
    7     8    1.55
    8    22  246.00
    9     8    1.55
   10     1    1.19
   11     8    1.55
   12     1    1.19
 Generate Potential Derived Charges using the Chirlian-Francl model.
 Fit using   5 shells.
 Number of Points to Fit=       0

 **********************************************************************

            Electrostatic Properties Using The SCF Density

 **********************************************************************

       Atomic Center    1 is at   0.324438 -0.000061  0.053829
       Atomic Center    2 is at   3.068398 -0.000022 -0.378021
       Atomic Center    3 is at   1.657178 -1.232232 -0.154531
       Atomic Center    4 is at   1.657229  1.232168 -0.154271
       Atomic Center    5 is at  -1.109502 -0.000651  1.277439
       Atomic Center    6 is at  -1.036702  0.000279 -1.184431
       Atomic Center    7 is at   3.938728 -0.000232  1.026179
       Atomic Center    8 is at  -2.452522 -0.000061  0.028779
       Atomic Center    9 is at  -3.358912 -1.532770  0.002499
       Atomic Center   10 is at  -3.909082 -2.328490 -0.014451
       Atomic Center   11 is at  -3.357491  1.533290  0.002949
       Atomic Center   12 is at  -3.902061  2.332840 -0.013161
       0 points will be used for fitting atomic charges
 Fitting point charges to electrostatic potential
 Charges from ESP fit, RMS=       NaN RRMS=       NaN:
 ESP charges:
               1
     1  Ti   0.000000
     2  Ti   0.000000
     3  O    0.000000
     4  O    0.000000
     5  O    0.000000
     6  O    0.000000
     7  O    0.000000
     8  Ti   0.000000
     9  O    0.000000
    10  H    0.000000
    11  O    0.000000
    12  H    0.000000
 Sum of ESP charges =   0.00000
 ESP charges with hydrogens summed into heavy atoms:
               1
     1  Ti   0.000000
     2  Ti   0.000000
     3  O    0.000000
     4  O    0.000000
     5  O    0.000000
     6  O    0.000000
     7  O    0.000000
     8  Ti   0.000000
     9  O    0.000000
    11  O    0.000000
 Charge=   0.00000 Dipole=     0.0000     0.0000     0.0000 Tot=     0.0000
 -----------------------------------------------------------------

              Electrostatic Properties (Atomic Units)

 -----------------------------------------------------------------
    Center     Electric         -------- Electric Field --------
               Potential          X             Y             Z
 -----------------------------------------------------------------
    1 Atom    -10.824126
    2 Atom    -10.765090
    3 Atom    -22.332939
    4 Atom    -22.332918
    5 Atom    -22.367844
    6 Atom    -22.358327
    7 Atom    -22.372088
    8 Atom    -10.826958
    9 Atom    -22.341626
   10 Atom     -0.937733
   11 Atom    -22.341520
   12 Atom     -0.937641
 -----------------------------------------------------------------
 Leave Link  602 at Mon Jun  7 17:28:38 2021, MaxMem=   536870912 cpu:               0.6 elap:               0.1
 (Enter /home/rheinheimer/Apps//g16/l9999.exe)

 Test job not archived.
 1\1\GINC-POP-OS\SP\RB3LYP\LANL2DZ\H2O7Ti3\RHEINHEIMER\07-Jun-2021\0\\#
 P B3LYP/LANL2DZ # SCRF=(Solvent=Water) # Pop=(Chelp, ReadRadii) # Gfin
 put IOP(6/7=3) Density Test # Units(Ang,Deg)\\Title Card Required\\0,1
 \Ti,0,-0.32444,-0.00006,-0.05383\Ti,0,-3.0684,-0.00002,0.37802\O,0,-1.
 65718,-1.23223,0.15453\O,0,-1.65723,1.23217,0.15427\O,0,1.1095,-0.0006
 5,-1.27744\O,0,1.0367,0.00028,1.18443\O,0,-3.93873,-0.00023,-1.02618\T
 i,0,2.45252,-0.00006,-0.02878\O,0,3.35891,-1.53277,-0.0025\H,0,3.90908
 ,-2.32849,0.01445\O,0,3.35749,1.53329,-0.00295\H,0,3.90206,2.33284,0.0
 1316\\Version=ES64L-G16RevA.03\State=1-A\HF=-702.7267348\RMSD=8.714e-0
 9\Dipole=-0.1490594,0.0048538,2.49333\Quadrupole=14.2713145,-4.0747814
 ,-10.1965331,0.004901,-18.7414127,-0.0067581\PG=C01 [X(H2O7Ti3)]\\@


 WHEN YOU REACH FOR THE STARS, YOU MAY NOT QUITE GET ONE,
 BUT YOU WON'T COME UP WITH A HANDFUL OF MUD, EITHER.

                                         -- LEO BURNETT (AD AGENCY HEAD)
 Job cpu time:       0 days  0 hours  5 minutes 45.8 seconds.
 Elapsed time:       0 days  0 hours  0 minutes 49.7 seconds.
 File lengths (MBytes):  RWF=     52 Int=      0 D2E=      0 Chk=      3 Scr=      1
 Normal termination of Gaussian 16 at Mon Jun  7 17:28:38 2021.
