 Entering Gaussian System, Link 0=g16
 Input=w-3-tio2-p_cation_scf_g09.com
 Output=w-3-tio2-p_cation_scf_g09.log
 Initial command:
 /home/rheinheimer/Apps//g16/l1.exe "/home/rheinheimer/Apps/scrgauss/Gau-1682137.inp" -scrdir="/home/rheinheimer/Apps/scrgauss/"
 Entering Link 1 = /home/rheinheimer/Apps//g16/l1.exe PID=   1682139.
  
 Copyright (c) 1988,1990,1992,1993,1995,1998,2003,2009,2016,
            Gaussian, Inc.  All Rights Reserved.
  
 This is part of the Gaussian(R) 16 program.  It is based on
 the Gaussian(R) 09 system (copyright 2009, Gaussian, Inc.),
 the Gaussian(R) 03 system (copyright 2003, Gaussian, Inc.),
 the Gaussian(R) 98 system (copyright 1998, Gaussian, Inc.),
 the Gaussian(R) 94 system (copyright 1995, Gaussian, Inc.),
 the Gaussian 92(TM) system (copyright 1992, Gaussian, Inc.),
 the Gaussian 90(TM) system (copyright 1990, Gaussian, Inc.),
 the Gaussian 88(TM) system (copyright 1988, Gaussian, Inc.),
 the Gaussian 86(TM) system (copyright 1986, Carnegie Mellon
 University), and the Gaussian 82(TM) system (copyright 1983,
 Carnegie Mellon University). Gaussian is a federally registered
 trademark of Gaussian, Inc.
  
 This software contains proprietary and confidential information,
 including trade secrets, belonging to Gaussian, Inc.
  
 This software is provided under written license and may be
 used, copied, transmitted, or stored only in accord with that
 written license.
  
 The following legend is applicable only to US Government
 contracts under FAR:
  
                    RESTRICTED RIGHTS LEGEND
  
 Use, reproduction and disclosure by the US Government is
 subject to restrictions as set forth in subparagraphs (a)
 and (c) of the Commercial Computer Software - Restricted
 Rights clause in FAR 52.227-19.
  
 Gaussian, Inc.
 340 Quinnipiac St., Bldg. 40, Wallingford CT 06492
  
  
 ---------------------------------------------------------------
 Warning -- This program may not be used in any manner that
 competes with the business of Gaussian, Inc. or will provide
 assistance to any competitor of Gaussian, Inc.  The licensee
 of this program is prohibited from giving any competitor of
 Gaussian, Inc. access to this program.  By using this program,
 the user acknowledges that Gaussian, Inc. is engaged in the
 business of creating and licensing software in the field of
 computational chemistry and represents and warrants to the
 licensee that it is not a competitor of Gaussian, Inc. and that
 it will not use this program in any manner prohibited above.
 ---------------------------------------------------------------
  

 Cite this work as:
 Gaussian 16, Revision A.03,
 M. J. Frisch, G. W. Trucks, H. B. Schlegel, G. E. Scuseria, 
 M. A. Robb, J. R. Cheeseman, G. Scalmani, V. Barone, 
 G. A. Petersson, H. Nakatsuji, X. Li, M. Caricato, A. V. Marenich, 
 J. Bloino, B. G. Janesko, R. Gomperts, B. Mennucci, H. P. Hratchian, 
 J. V. Ortiz, A. F. Izmaylov, J. L. Sonnenberg, D. Williams-Young, 
 F. Ding, F. Lipparini, F. Egidi, J. Goings, B. Peng, A. Petrone, 
 T. Henderson, D. Ranasinghe, V. G. Zakrzewski, J. Gao, N. Rega, 
 G. Zheng, W. Liang, M. Hada, M. Ehara, K. Toyota, R. Fukuda, 
 J. Hasegawa, M. Ishida, T. Nakajima, Y. Honda, O. Kitao, H. Nakai, 
 T. Vreven, K. Throssell, J. A. Montgomery, Jr., J. E. Peralta, 
 F. Ogliaro, M. J. Bearpark, J. J. Heyd, E. N. Brothers, K. N. Kudin, 
 V. N. Staroverov, T. A. Keith, R. Kobayashi, J. Normand, 
 K. Raghavachari, A. P. Rendell, J. C. Burant, S. S. Iyengar, 
 J. Tomasi, M. Cossi, J. M. Millam, M. Klene, C. Adamo, R. Cammi, 
 J. W. Ochterski, R. L. Martin, K. Morokuma, O. Farkas, 
 J. B. Foresman, and D. J. Fox, Gaussian, Inc., Wallingford CT, 2016.
 
 ******************************************
 Gaussian 16:  ES64L-G16RevA.03 25-Dec-2016
                 7-Jun-2021 
 ******************************************
 %nproc=8
 Will use up to    8 processors via shared memory.
 %Mem=4GB
 ----------------------------------------------------------------------
 #t B3LYP/LANL2DZ # SCRF=(Solvent=Water) # Gfinput IOP(6/7=3) Pop=hirsh
 feld Density Test # Units(Ang,Deg)
 ----------------------------------------------------------------------
 ----------
 3-tio2.pdb
 ----------
 Symbolic Z-matrix:
 Charge =  1 Multiplicity = 2
 Ti                   -0.32444  -0.00006  -0.05383 
 Ti                   -3.0684   -0.00002   0.37802 
 O                    -1.65718  -1.23223   0.15453 
 O                    -1.65723   1.23217   0.15427 
 O                     1.1095   -0.00065  -1.27744 
 O                     1.0367    0.00028   1.18443 
 O                    -3.93873  -0.00023  -1.02618 
 Ti                    2.45252  -0.00006  -0.02878 
 O                     3.35891  -1.53277  -0.0025 
 H                     3.90908  -2.32849   0.01445 
 O                     3.35749   1.53329  -0.00295 
 H                     3.90206   2.33284   0.01316 
 
                    Distance matrix (angstroms):
                    1          2          3          4          5
     1  Ti   0.000000
     2  Ti   2.777735   0.000000
     3  O    1.826979   1.886751   0.000000
     4  O    1.827026   1.886732   2.464400   0.000000
     5  O    1.885048   4.493929   3.349902   3.350289   0.000000
     6  O    1.840106   4.183556   3.136362   3.136246   2.462946
     7  O    3.742801   1.652045   2.849100   2.849125   5.054479
     8  Ti   2.777073   5.535887   4.294354   4.294408   1.833809
     9  O    3.989850   6.618492   5.027538   5.729846   3.005447
    10  H    4.832074   7.364726   5.674915   6.609210   3.863349
    11  O    3.988779   6.617268   5.728858   5.026212   3.005122
    12  H    4.828065   7.359529   6.605669   5.668959   3.861245
                    6          7          8          9         10
     6  O    0.000000
     7  O    5.444419   0.000000
     8  Ti   1.864517   6.468608   0.000000
     9  O    3.025178   7.526762   1.780852   0.000000
    10  H    3.878478   8.251777   2.746820   0.967546   0.000000
    11  O    3.024245   7.525524   1.780674   3.066060   3.901013
    12  H    3.875951   8.246298   2.746880   3.903613   4.661335
                   11         12
    11  O    0.000000
    12  H    0.967521   0.000000
 Framework group  C1[X(H2O7Ti3)]
 Deg. of freedom    30
                         Standard orientation:                         
 ---------------------------------------------------------------------
 Center     Atomic      Atomic             Coordinates (Angstroms)
 Number     Number       Type             X           Y           Z
 ---------------------------------------------------------------------
      1         22           0        0.324438   -0.000061    0.053829
      2         22           0        3.068398   -0.000022   -0.378021
      3          8           0        1.657178   -1.232232   -0.154531
      4          8           0        1.657229    1.232168   -0.154271
      5          8           0       -1.109502   -0.000651    1.277439
      6          8           0       -1.036702    0.000279   -1.184431
      7          8           0        3.938728   -0.000232    1.026179
      8         22           0       -2.452522   -0.000061    0.028779
      9          8           0       -3.358912   -1.532770    0.002499
     10          1           0       -3.909082   -2.328490   -0.014451
     11          8           0       -3.357491    1.533290    0.002949
     12          1           0       -3.902061    2.332840   -0.013161
 ---------------------------------------------------------------------
 Rotational constants (GHZ):           2.4313751           0.3194705           0.3075068
 AO basis set in the form of general basis input (Overlap normalization):
      1 0
 S   3 1.00       0.000000000000
      0.1098000000D+01 -0.1023676994D+00
      0.4178000000D+00 -0.3753172148D+00
      0.8720000000D-01  0.1215423149D+01
 S   3 1.00       0.000000000000
      0.4372000000D+01 -0.3637098367D+00
      0.1098000000D+01  0.8184533826D+00
      0.4178000000D+00  0.4184526423D+00
 S   1 1.00       0.000000000000
      0.3140000000D-01  0.1000000000D+01
 P   3 1.00       0.000000000000
      0.1252000000D+02 -0.4569080054D-01
      0.1491000000D+01  0.6203313074D+00
      0.4859000000D+00  0.4765329057D+00
 P   1 1.00       0.000000000000
      0.5300000000D-01  0.1000000000D+01
 P   1 1.00       0.000000000000
      0.1600000000D-01  0.1000000000D+01
 D   4 1.00       0.000000000000
      0.2021000000D+02  0.3416819898D-01
      0.5495000000D+01  0.1710005949D+00
      0.1699000000D+01  0.4405848869D+00
      0.4840000000D+00  0.6114245818D+00
 D   1 1.00       0.000000000000
      0.1157000000D+00  0.1000000000D+01
 ****
      2 0
 S   3 1.00       0.000000000000
      0.1098000000D+01 -0.1023676994D+00
      0.4178000000D+00 -0.3753172148D+00
      0.8720000000D-01  0.1215423149D+01
 S   3 1.00       0.000000000000
      0.4372000000D+01 -0.3637098367D+00
      0.1098000000D+01  0.8184533826D+00
      0.4178000000D+00  0.4184526423D+00
 S   1 1.00       0.000000000000
      0.3140000000D-01  0.1000000000D+01
 P   3 1.00       0.000000000000
      0.1252000000D+02 -0.4569080054D-01
      0.1491000000D+01  0.6203313074D+00
      0.4859000000D+00  0.4765329057D+00
 P   1 1.00       0.000000000000
      0.5300000000D-01  0.1000000000D+01
 P   1 1.00       0.000000000000
      0.1600000000D-01  0.1000000000D+01
 D   4 1.00       0.000000000000
      0.2021000000D+02  0.3416819898D-01
      0.5495000000D+01  0.1710005949D+00
      0.1699000000D+01  0.4405848869D+00
      0.4840000000D+00  0.6114245818D+00
 D   1 1.00       0.000000000000
      0.1157000000D+00  0.1000000000D+01
 ****
      3 0
 S   7 1.00       0.000000000000
      0.7817000000D+04  0.1176000331D-02
      0.1176000000D+04  0.8968002523D-02
      0.2732000000D+03  0.4286801206D-01
      0.8117000000D+02  0.1439300405D+00
      0.2718000000D+02  0.3556301000D+00
      0.9532000000D+01  0.4612481297D+00
      0.3414000000D+01  0.1402060394D+00
 S   2 1.00       0.000000000000
      0.9532000000D+01 -0.1541530739D+00
      0.9398000000D+00  0.1056914507D+01
 S   1 1.00       0.000000000000
      0.2846000000D+00  0.1000000000D+01
 P   4 1.00       0.000000000000
      0.3518000000D+02  0.1958000050D-01
      0.7904000000D+01  0.1242000032D+00
      0.2305000000D+01  0.3947140101D+00
      0.7171000000D+00  0.6273760161D+00
 P   1 1.00       0.000000000000
      0.2137000000D+00  0.1000000000D+01
 ****
      4 0
 S   7 1.00       0.000000000000
      0.7817000000D+04  0.1176000331D-02
      0.1176000000D+04  0.8968002523D-02
      0.2732000000D+03  0.4286801206D-01
      0.8117000000D+02  0.1439300405D+00
      0.2718000000D+02  0.3556301000D+00
      0.9532000000D+01  0.4612481297D+00
      0.3414000000D+01  0.1402060394D+00
 S   2 1.00       0.000000000000
      0.9532000000D+01 -0.1541530739D+00
      0.9398000000D+00  0.1056914507D+01
 S   1 1.00       0.000000000000
      0.2846000000D+00  0.1000000000D+01
 P   4 1.00       0.000000000000
      0.3518000000D+02  0.1958000050D-01
      0.7904000000D+01  0.1242000032D+00
      0.2305000000D+01  0.3947140101D+00
      0.7171000000D+00  0.6273760161D+00
 P   1 1.00       0.000000000000
      0.2137000000D+00  0.1000000000D+01
 ****
      5 0
 S   7 1.00       0.000000000000
      0.7817000000D+04  0.1176000331D-02
      0.1176000000D+04  0.8968002523D-02
      0.2732000000D+03  0.4286801206D-01
      0.8117000000D+02  0.1439300405D+00
      0.2718000000D+02  0.3556301000D+00
      0.9532000000D+01  0.4612481297D+00
      0.3414000000D+01  0.1402060394D+00
 S   2 1.00       0.000000000000
      0.9532000000D+01 -0.1541530739D+00
      0.9398000000D+00  0.1056914507D+01
 S   1 1.00       0.000000000000
      0.2846000000D+00  0.1000000000D+01
 P   4 1.00       0.000000000000
      0.3518000000D+02  0.1958000050D-01
      0.7904000000D+01  0.1242000032D+00
      0.2305000000D+01  0.3947140101D+00
      0.7171000000D+00  0.6273760161D+00
 P   1 1.00       0.000000000000
      0.2137000000D+00  0.1000000000D+01
 ****
      6 0
 S   7 1.00       0.000000000000
      0.7817000000D+04  0.1176000331D-02
      0.1176000000D+04  0.8968002523D-02
      0.2732000000D+03  0.4286801206D-01
      0.8117000000D+02  0.1439300405D+00
      0.2718000000D+02  0.3556301000D+00
      0.9532000000D+01  0.4612481297D+00
      0.3414000000D+01  0.1402060394D+00
 S   2 1.00       0.000000000000
      0.9532000000D+01 -0.1541530739D+00
      0.9398000000D+00  0.1056914507D+01
 S   1 1.00       0.000000000000
      0.2846000000D+00  0.1000000000D+01
 P   4 1.00       0.000000000000
      0.3518000000D+02  0.1958000050D-01
      0.7904000000D+01  0.1242000032D+00
      0.2305000000D+01  0.3947140101D+00
      0.7171000000D+00  0.6273760161D+00
 P   1 1.00       0.000000000000
      0.2137000000D+00  0.1000000000D+01
 ****
      7 0
 S   7 1.00       0.000000000000
      0.7817000000D+04  0.1176000331D-02
      0.1176000000D+04  0.8968002523D-02
      0.2732000000D+03  0.4286801206D-01
      0.8117000000D+02  0.1439300405D+00
      0.2718000000D+02  0.3556301000D+00
      0.9532000000D+01  0.4612481297D+00
      0.3414000000D+01  0.1402060394D+00
 S   2 1.00       0.000000000000
      0.9532000000D+01 -0.1541530739D+00
      0.9398000000D+00  0.1056914507D+01
 S   1 1.00       0.000000000000
      0.2846000000D+00  0.1000000000D+01
 P   4 1.00       0.000000000000
      0.3518000000D+02  0.1958000050D-01
      0.7904000000D+01  0.1242000032D+00
      0.2305000000D+01  0.3947140101D+00
      0.7171000000D+00  0.6273760161D+00
 P   1 1.00       0.000000000000
      0.2137000000D+00  0.1000000000D+01
 ****
      8 0
 S   3 1.00       0.000000000000
      0.1098000000D+01 -0.1023676994D+00
      0.4178000000D+00 -0.3753172148D+00
      0.8720000000D-01  0.1215423149D+01
 S   3 1.00       0.000000000000
      0.4372000000D+01 -0.3637098367D+00
      0.1098000000D+01  0.8184533826D+00
      0.4178000000D+00  0.4184526423D+00
 S   1 1.00       0.000000000000
      0.3140000000D-01  0.1000000000D+01
 P   3 1.00       0.000000000000
      0.1252000000D+02 -0.4569080054D-01
      0.1491000000D+01  0.6203313074D+00
      0.4859000000D+00  0.4765329057D+00
 P   1 1.00       0.000000000000
      0.5300000000D-01  0.1000000000D+01
 P   1 1.00       0.000000000000
      0.1600000000D-01  0.1000000000D+01
 D   4 1.00       0.000000000000
      0.2021000000D+02  0.3416819898D-01
      0.5495000000D+01  0.1710005949D+00
      0.1699000000D+01  0.4405848869D+00
      0.4840000000D+00  0.6114245818D+00
 D   1 1.00       0.000000000000
      0.1157000000D+00  0.1000000000D+01
 ****
      9 0
 S   7 1.00       0.000000000000
      0.7817000000D+04  0.1176000331D-02
      0.1176000000D+04  0.8968002523D-02
      0.2732000000D+03  0.4286801206D-01
      0.8117000000D+02  0.1439300405D+00
      0.2718000000D+02  0.3556301000D+00
      0.9532000000D+01  0.4612481297D+00
      0.3414000000D+01  0.1402060394D+00
 S   2 1.00       0.000000000000
      0.9532000000D+01 -0.1541530739D+00
      0.9398000000D+00  0.1056914507D+01
 S   1 1.00       0.000000000000
      0.2846000000D+00  0.1000000000D+01
 P   4 1.00       0.000000000000
      0.3518000000D+02  0.1958000050D-01
      0.7904000000D+01  0.1242000032D+00
      0.2305000000D+01  0.3947140101D+00
      0.7171000000D+00  0.6273760161D+00
 P   1 1.00       0.000000000000
      0.2137000000D+00  0.1000000000D+01
 ****
     10 0
 S   3 1.00       0.000000000000
      0.1924060000D+02  0.3282807697D-01
      0.2899200000D+01  0.2312085421D+00
      0.6534000000D+00  0.8172399161D+00
 S   1 1.00       0.000000000000
      0.1776000000D+00  0.1000000000D+01
 ****
     11 0
 S   7 1.00       0.000000000000
      0.7817000000D+04  0.1176000331D-02
      0.1176000000D+04  0.8968002523D-02
      0.2732000000D+03  0.4286801206D-01
      0.8117000000D+02  0.1439300405D+00
      0.2718000000D+02  0.3556301000D+00
      0.9532000000D+01  0.4612481297D+00
      0.3414000000D+01  0.1402060394D+00
 S   2 1.00       0.000000000000
      0.9532000000D+01 -0.1541530739D+00
      0.9398000000D+00  0.1056914507D+01
 S   1 1.00       0.000000000000
      0.2846000000D+00  0.1000000000D+01
 P   4 1.00       0.000000000000
      0.3518000000D+02  0.1958000050D-01
      0.7904000000D+01  0.1242000032D+00
      0.2305000000D+01  0.3947140101D+00
      0.7171000000D+00  0.6273760161D+00
 P   1 1.00       0.000000000000
      0.2137000000D+00  0.1000000000D+01
 ****
     12 0
 S   3 1.00       0.000000000000
      0.1924060000D+02  0.3282807697D-01
      0.2899200000D+01  0.2312085421D+00
      0.6534000000D+00  0.8172399161D+00
 S   1 1.00       0.000000000000
      0.1776000000D+00  0.1000000000D+01
 ****

 Effective core potential in the form of general ECP input:
      1 0
 Ti1-ECP   2 10
 D component
  3
  1      265.3263909      -10.00000000    0.00000000
  2       47.7687815      -51.84278160    0.00000000
  2       11.8903334       -9.14291450    0.00000000
 S-D projection
  5
  0       81.4730696        3.00000000    0.00000000
  1       72.6496724       19.48255790    0.00000000
  2       31.8128213      207.33492790    0.00000000
  2        6.1664468      235.67445010    0.00000000
  2        5.8268347     -166.87843870    0.00000000
 P-D projection
  5
  0       50.2966943        5.00000000    0.00000000
  1       63.5089754        5.53488220    0.00000000
  2       26.0996084      177.84193840    0.00000000
  2        5.6022573      107.42071530    0.00000000
  2        5.2171069      -71.90659020    0.00000000
      2 0
 Ti2-ECP   2 10
 D component
  3
  1      265.3263909      -10.00000000    0.00000000
  2       47.7687815      -51.84278160    0.00000000
  2       11.8903334       -9.14291450    0.00000000
 S-D projection
  5
  0       81.4730696        3.00000000    0.00000000
  1       72.6496724       19.48255790    0.00000000
  2       31.8128213      207.33492790    0.00000000
  2        6.1664468      235.67445010    0.00000000
  2        5.8268347     -166.87843870    0.00000000
 P-D projection
  5
  0       50.2966943        5.00000000    0.00000000
  1       63.5089754        5.53488220    0.00000000
  2       26.0996084      177.84193840    0.00000000
  2        5.6022573      107.42071530    0.00000000
  2        5.2171069      -71.90659020    0.00000000
      8 0
 Ti8-ECP   2 10
 D component
  3
  1      265.3263909      -10.00000000    0.00000000
  2       47.7687815      -51.84278160    0.00000000
  2       11.8903334       -9.14291450    0.00000000
 S-D projection
  5
  0       81.4730696        3.00000000    0.00000000
  1       72.6496724       19.48255790    0.00000000
  2       31.8128213      207.33492790    0.00000000
  2        6.1664468      235.67445010    0.00000000
  2        5.8268347     -166.87843870    0.00000000
 P-D projection
  5
  0       50.2966943        5.00000000    0.00000000
  1       63.5089754        5.53488220    0.00000000
  2       26.0996084      177.84193840    0.00000000
  2        5.6022573      107.42071530    0.00000000
  2        5.2171069      -71.90659020    0.00000000
 
   133 basis functions,   339 primitive gaussians,   139 cartesian basis functions
    47 alpha electrons       46 beta electrons
       nuclear repulsion energy       709.2329436421 Hartrees.
 NAtoms=   12 NActive=   12 NUniq=   12 SFac= 1.00D+00 NAtFMM=   60 NAOKFM=F Big=F
 ------------------------------------------------------------------------------
 Polarizable Continuum Model (PCM)
 =================================
 Model                : PCM.
 Atomic radii         : UFF (Universal Force Field).
 Polarization charges : Total charges.
 Charge compensation  : None.
 Solution method      : On-the-fly selection.
 Cavity type          : Scaled VdW (van der Waals Surface) (Alpha=1.100).
 Cavity algorithm     : GePol (No added spheres)
                        Default sphere list used, NSphG=   12.
                        Lebedev-Laikov grids with approx.  5.0 points / Ang**2.
                        Smoothing algorithm: York/Karplus (Gamma=1.0000).
                        Polarization charges: spherical gaussians, with
                                              point-specific exponents (IZeta= 3).
                        Self-potential: point-specific (ISelfS= 7).
                        Self-field    : sphere-specific E.n sum rule (ISelfD= 2).
 Solvent              : Water, Eps=  78.355300 Eps(inf)=   1.777849
 ------------------------------------------------------------------------------
 Spheres list:
 ISph  on   Nord     Re0    Alpha      Xe            Ye            Ze
    1  Ti      1    1.5875  1.100      0.324438     -0.000061      0.053829
    2  Ti      2    1.5875  1.100      3.068398     -0.000022     -0.378021
    3   O      3    1.7500  1.100      1.657178     -1.232232     -0.154531
    4   O      4    1.7500  1.100      1.657229      1.232168     -0.154271
    5   O      5    1.7500  1.100     -1.109502     -0.000651      1.277439
    6   O      6    1.7500  1.100     -1.036702      0.000279     -1.184431
    7   O      7    1.7500  1.100      3.938728     -0.000232      1.026179
    8  Ti      8    1.5875  1.100     -2.452522     -0.000061      0.028779
    9   O      9    1.7500  1.100     -3.358912     -1.532770      0.002499
   10   H     10    1.4430  1.100     -3.909082     -2.328490     -0.014451
   11   O     11    1.7500  1.100     -3.357491      1.533290      0.002949
   12   H     12    1.4430  1.100     -3.902061      2.332840     -0.013161
 ------------------------------------------------------------------------------
   1 Symmetry operations used in ECPInt.
 ECPInt:  NShTT=    2016 NPrTT=   13777 LenC2=    1945 LenP2D=    9110.
 LDataN:  DoStor=T MaxTD1= 4 Len=   56
 ExpMin= 1.60D-02 ExpMax= 7.82D+03 ExpMxC= 2.73D+02 IAcc=3 IRadAn=         5 AccDes= 0.00D+00
 Harris functional with IExCor=  402 and IRadAn=       5 diagonalized for initial guess.
 HarFok:  IExCor=  402 AccDes= 0.00D+00 IRadAn=         5 IDoV= 1 UseB2=F ITyADJ=14
 ICtDFT=  3500011 ScaDFX=  1.000000  1.000000  1.000000  1.000000
 FoFCou: FMM=F IPFlag=           0 FMFlag=      100000 FMFlg1=           0
         NFxFlg=           0 DoJE=T BraDBF=F KetDBF=T FulRan=T
         wScrn=  0.000000 ICntrl=       500 IOpCl=  0 I1Cent=   200000004 NGrid=           0
         NMat0=    1 NMatS0=      1 NMatT0=    0 NMatD0=    1 NMtDS0=    0 NMtDT0=    0
 Petite list used in FoFCou.
 Initial guess <Sx>= 0.0000 <Sy>= 0.0000 <Sz>= 0.5000 <S**2>= 0.7500 S= 0.5000
 Inv3:  Mode=1 IEnd=     7254075.
 Iteration    1 A*A^-1 deviation from unit magnitude is 2.89D-15 for    923.
 Iteration    1 A*A^-1 deviation from orthogonality  is 2.22D-15 for   1267    130.
 Iteration    1 A^-1*A deviation from unit magnitude is 2.89D-15 for     63.
 Iteration    1 A^-1*A deviation from orthogonality  is 8.38D-15 for   1359   1305.
 EnCoef did     7 forward-backward iterations
 EnCoef did     4 forward-backward iterations
 EnCoef did     7 forward-backward iterations
 Error on total polarization charges =  0.01663
 SCF Done:  E(UB3LYP) =  -702.435339498     A.U. after   32 cycles
            NFock= 32  Conv=0.89D-08     -V/T= 2.1752
 <Sx>= 0.0000 <Sy>= 0.0000 <Sz>= 0.5000 <S**2>= 0.7864 S= 0.5180
 <L.S>=  0.00000000000    
 Annihilation of the first spin contaminant:
 S**2 before annihilation     0.7864,   after     0.7510

 **********************************************************************

            Population analysis using the SCF density.

 **********************************************************************

 Orbital symmetries:
 Alpha Orbitals:
       Occupied  (A) (A) (A) (A) (A) (A) (A) (A) (A) (A) (A) (A)
                 (A) (A) (A) (A) (A) (A) (A) (A) (A) (A) (A) (A)
                 (A) (A) (A) (A) (A) (A) (A) (A) (A) (A) (A) (A)
                 (A) (A) (A) (A) (A) (A) (A) (A) (A) (A) (A)
       Virtual   (A) (A) (A) (A) (A) (A) (A) (A) (A) (A) (A) (A)
                 (A) (A) (A) (A) (A) (A) (A) (A) (A) (A) (A) (A)
                 (A) (A) (A) (A) (A) (A) (A) (A) (A) (A) (A) (A)
                 (A) (A) (A) (A) (A) (A) (A) (A) (A) (A) (A) (A)
                 (A) (A) (A) (A) (A) (A) (A) (A) (A) (A) (A) (A)
                 (A) (A) (A) (A) (A) (A) (A) (A) (A) (A) (A) (A)
                 (A) (A) (A) (A) (A) (A) (A) (A) (A) (A) (A) (A)
                 (A) (A)
 Beta  Orbitals:
       Occupied  (A) (A) (A) (A) (A) (A) (A) (A) (A) (A) (A) (A)
                 (A) (A) (A) (A) (A) (A) (A) (A) (A) (A) (A) (A)
                 (A) (A) (A) (A) (A) (A) (A) (A) (A) (A) (A) (A)
                 (A) (A) (A) (A) (A) (A) (A) (A) (A) (A)
       Virtual   (A) (A) (A) (A) (A) (A) (A) (A) (A) (A) (A) (A)
                 (A) (A) (A) (A) (A) (A) (A) (A) (A) (A) (A) (A)
                 (A) (A) (A) (A) (A) (A) (A) (A) (A) (A) (A) (A)
                 (A) (A) (A) (A) (A) (A) (A) (A) (A) (A) (A) (A)
                 (A) (A) (A) (A) (A) (A) (A) (A) (A) (A) (A) (A)
                 (A) (A) (A) (A) (A) (A) (A) (A) (A) (A) (A) (A)
                 (A) (A) (A) (A) (A) (A) (A) (A) (A) (A) (A) (A)
                 (A) (A) (A)
 The electronic state is 2-A.
 Alpha  occ. eigenvalues --  -19.21938 -19.19855 -19.19854 -19.18585 -19.18205
 Alpha  occ. eigenvalues --  -19.16259 -19.16256  -2.50667  -2.49711  -2.48879
 Alpha  occ. eigenvalues --   -1.63990  -1.63169  -1.62223  -1.62172  -1.61488
 Alpha  occ. eigenvalues --   -1.61346  -1.61102  -1.60925  -1.60445  -0.99051
 Alpha  occ. eigenvalues --   -0.98395  -0.98324  -0.97016  -0.96783  -0.95853
 Alpha  occ. eigenvalues --   -0.95374  -0.53539  -0.52553  -0.45721  -0.44890
 Alpha  occ. eigenvalues --   -0.44197  -0.42972  -0.42647  -0.41762  -0.41165
 Alpha  occ. eigenvalues --   -0.40727  -0.40242  -0.40181  -0.39735  -0.38925
 Alpha  occ. eigenvalues --   -0.37212  -0.37108  -0.36647  -0.36332  -0.34328
 Alpha  occ. eigenvalues --   -0.33777  -0.33318
 Alpha virt. eigenvalues --   -0.13852  -0.12710  -0.11185  -0.10423  -0.10106
 Alpha virt. eigenvalues --   -0.09935  -0.07651  -0.07260  -0.06375  -0.05314
 Alpha virt. eigenvalues --   -0.05154  -0.04574  -0.04013  -0.03771  -0.03263
 Alpha virt. eigenvalues --   -0.00894  -0.00306   0.00536   0.00980   0.01684
 Alpha virt. eigenvalues --    0.01920   0.02472   0.04100   0.04284   0.04549
 Alpha virt. eigenvalues --    0.06625   0.08973   0.11379   0.11667   0.13302
 Alpha virt. eigenvalues --    0.13445   0.15068   0.15863   0.15929   0.16934
 Alpha virt. eigenvalues --    0.18373   0.19750   0.20801   0.30202   0.30280
 Alpha virt. eigenvalues --    0.31727   0.32442   0.33066   0.33227   0.33270
 Alpha virt. eigenvalues --    0.35560   0.35699   0.36701   0.37065   0.39937
 Alpha virt. eigenvalues --    0.43769   0.48340   0.49536   0.60188   0.64324
 Alpha virt. eigenvalues --    0.68791   0.71182   0.71652   0.73129   0.75250
 Alpha virt. eigenvalues --    0.76765   0.78130   0.78849   0.80221   0.81884
 Alpha virt. eigenvalues --    0.82842   0.85332   0.87494   0.89767   0.91143
 Alpha virt. eigenvalues --    0.95197   0.95317   0.96898   1.01836   1.03783
 Alpha virt. eigenvalues --    1.06667   1.30142   1.45439   1.46725   1.51069
 Alpha virt. eigenvalues --    1.57254   1.58917   1.67314   3.74088  11.02279
 Alpha virt. eigenvalues --   16.16195
  Beta  occ. eigenvalues --  -19.20587 -19.19303 -19.19302 -19.18164 -19.17723
  Beta  occ. eigenvalues --  -19.16193 -19.16190  -2.51306  -2.50117  -2.49035
  Beta  occ. eigenvalues --   -1.64633  -1.63786  -1.62744  -1.62691  -1.61871
  Beta  occ. eigenvalues --   -1.61793  -1.61216  -1.61171  -1.60646  -0.98809
  Beta  occ. eigenvalues --   -0.98154  -0.96952  -0.95480  -0.94775  -0.94100
  Beta  occ. eigenvalues --   -0.92949  -0.53491  -0.52506  -0.44285  -0.43761
  Beta  occ. eigenvalues --   -0.42965  -0.42096  -0.40908  -0.40080  -0.39877
  Beta  occ. eigenvalues --   -0.39725  -0.39420  -0.38684  -0.38412  -0.36258
  Beta  occ. eigenvalues --   -0.35994  -0.35894  -0.34931  -0.33171  -0.33085
  Beta  occ. eigenvalues --   -0.32339
  Beta virt. eigenvalues --   -0.28546  -0.14106  -0.13107  -0.11233  -0.10555
  Beta virt. eigenvalues --   -0.10113  -0.09530  -0.07601  -0.07322  -0.06398
  Beta virt. eigenvalues --   -0.05360  -0.05116  -0.04466  -0.03935  -0.03784
  Beta virt. eigenvalues --   -0.03048  -0.00840  -0.00157   0.00570   0.01132
  Beta virt. eigenvalues --    0.01749   0.01956   0.02551   0.04128   0.04298
  Beta virt. eigenvalues --    0.04591   0.06767   0.09032   0.11465   0.11883
  Beta virt. eigenvalues --    0.13500   0.13509   0.15220   0.15906   0.16029
  Beta virt. eigenvalues --    0.17016   0.18532   0.19777   0.20895   0.30281
  Beta virt. eigenvalues --    0.30491   0.31857   0.32615   0.33114   0.33326
  Beta virt. eigenvalues --    0.33387   0.35553   0.35742   0.36753   0.37103
  Beta virt. eigenvalues --    0.40203   0.43923   0.48632   0.49601   0.60525
  Beta virt. eigenvalues --    0.64706   0.69762   0.71617   0.72169   0.73428
  Beta virt. eigenvalues --    0.75642   0.77880   0.78361   0.79427   0.81910
  Beta virt. eigenvalues --    0.82494   0.83972   0.85609   0.87660   0.90543
  Beta virt. eigenvalues --    0.91700   0.95379   0.95394   0.97252   1.02301
  Beta virt. eigenvalues --    1.03826   1.06905   1.31771   1.45967   1.47190
  Beta virt. eigenvalues --    1.51545   1.57610   1.59460   1.68012   3.74487
  Beta virt. eigenvalues --   11.02932  16.16723
     Alpha Molecular Orbital Coefficients:
                           1         2         3         4         5
                           O         O         O         O         O
     Eigenvalues --   -19.21938 -19.19855 -19.19854 -19.18585 -19.18205
   1 1   Ti 1S         -0.00004   0.00102   0.00124   0.00080   0.00120
   2        2S          0.00002   0.00029   0.00035   0.00022   0.00027
   3        3S          0.00014  -0.00034  -0.00041  -0.00032  -0.00005
   4        4PX         0.00002   0.00010   0.00012  -0.00010  -0.00009
   5        4PY         0.00000  -0.00019   0.00016   0.00000  -0.00000
   6        4PZ        -0.00000  -0.00002  -0.00002  -0.00017   0.00014
   7        5PX        -0.00033   0.00167   0.00203  -0.00211  -0.00161
   8        5PY         0.00000  -0.00038   0.00031   0.00000  -0.00000
   9        5PZ        -0.00027  -0.00008  -0.00010  -0.00021   0.00040
  10        6PX        -0.00006   0.00011   0.00014  -0.00015  -0.00007
  11        6PY        -0.00000   0.00037  -0.00031  -0.00000  -0.00000
  12        6PZ         0.00025   0.00002   0.00002   0.00038  -0.00025
  13        7D 0        0.00000  -0.00003  -0.00004   0.00002   0.00001
  14        7D+1       -0.00001  -0.00001  -0.00001   0.00007  -0.00009
  15        7D-1        0.00000   0.00002  -0.00001  -0.00000  -0.00000
  16        7D+2       -0.00000   0.00000   0.00001   0.00003   0.00003
  17        7D-2        0.00000  -0.00007   0.00006  -0.00000   0.00000
  18        8D 0       -0.00003  -0.00054  -0.00065  -0.00004  -0.00012
  19        8D+1        0.00012  -0.00031  -0.00038   0.00051  -0.00074
  20        8D-1        0.00000   0.00009  -0.00007  -0.00000  -0.00000
  21        8D+2       -0.00003   0.00041   0.00049   0.00071   0.00099
  22        8D-2       -0.00000  -0.00072   0.00060  -0.00000   0.00000
  23 2   Ti 1S          0.00107   0.00011   0.00013   0.00030   0.00004
  24        2S          0.00048   0.00003   0.00003   0.00012   0.00003
  25        3S          0.00005  -0.00066  -0.00080   0.00119   0.00076
  26        4PX         0.00013  -0.00010  -0.00012  -0.00002  -0.00002
  27        4PY        -0.00000  -0.00016   0.00013   0.00000   0.00000
  28        4PZ         0.00027   0.00004   0.00005  -0.00000  -0.00001
  29        5PX         0.00038  -0.00012  -0.00014  -0.00057  -0.00033
  30        5PY        -0.00000  -0.00028   0.00023   0.00000  -0.00000
  31        5PZ         0.00097  -0.00005  -0.00006   0.00008   0.00018
  32        6PX        -0.00016   0.00019   0.00022  -0.00012  -0.00009
  33        6PY         0.00000  -0.00001   0.00001   0.00000   0.00000
  34        6PZ        -0.00042  -0.00005  -0.00006  -0.00012   0.00011
  35        7D 0       -0.00002  -0.00004  -0.00005  -0.00001  -0.00003
  36        7D+1       -0.00001  -0.00001  -0.00001  -0.00001   0.00001
  37        7D-1        0.00000  -0.00002   0.00002   0.00000   0.00000
  38        7D+2        0.00000   0.00000   0.00000  -0.00001  -0.00001
  39        7D-2       -0.00000   0.00012  -0.00010  -0.00000  -0.00000
  40        8D 0        0.00028  -0.00026  -0.00032  -0.00005   0.00009
  41        8D+1        0.00036  -0.00014  -0.00017   0.00015  -0.00020
  42        8D-1       -0.00000  -0.00001   0.00001  -0.00000  -0.00000
  43        8D+2        0.00015   0.00005   0.00006   0.00008  -0.00010
  44        8D-2       -0.00000   0.00028  -0.00023  -0.00000   0.00000
  45 3   O  1S          0.00001   0.99429   0.09491  -0.00002  -0.00006
  46        2S          0.00003   0.00657   0.00070   0.00001   0.00007
  47        3S         -0.00007  -0.00446  -0.00081   0.00000  -0.00024
  48        4PX        -0.00002   0.00000  -0.00000   0.00001   0.00002
  49        4PY        -0.00000   0.00085   0.00003   0.00003   0.00003
  50        4PZ        -0.00001   0.00002   0.00000   0.00001  -0.00001
  51        5PX        -0.00003   0.00003  -0.00001  -0.00007  -0.00009
  52        5PY        -0.00004  -0.00093  -0.00018  -0.00024  -0.00035
  53        5PZ         0.00002  -0.00001   0.00001  -0.00006   0.00008
  54 4   O  1S          0.00001  -0.09490   0.99429  -0.00002  -0.00006
  55        2S          0.00003  -0.00055   0.00658   0.00001   0.00007
  56        3S         -0.00007   0.00005  -0.00453   0.00000  -0.00025
  57        4PX        -0.00002  -0.00000   0.00000   0.00001   0.00002
  58        4PY         0.00000   0.00013  -0.00084  -0.00003  -0.00003
  59        4PZ        -0.00001  -0.00000   0.00002   0.00001  -0.00001
  60        5PX        -0.00003  -0.00001   0.00002  -0.00007  -0.00009
  61        5PY         0.00004   0.00000   0.00095   0.00024   0.00035
  62        5PZ         0.00002   0.00001  -0.00001  -0.00006   0.00009
  63 5   O  1S         -0.00001   0.00006   0.00007  -0.00013   0.99881
  64        2S         -0.00003   0.00007   0.00008   0.00012   0.00665
  65        3S          0.00008  -0.00023  -0.00028  -0.00053  -0.00474
  66        4PX        -0.00002  -0.00001  -0.00001   0.00000  -0.00004
  67        4PY        -0.00000   0.00002  -0.00001  -0.00000   0.00000
  68        4PZ        -0.00001  -0.00003  -0.00004   0.00006  -0.00076
  69        5PX         0.00010  -0.00001  -0.00001  -0.00001  -0.00011
  70        5PY         0.00000  -0.00010   0.00008  -0.00000  -0.00000
  71        5PZ         0.00002   0.00027   0.00033   0.00008   0.00096
  72 6   O  1S          0.00000   0.00002   0.00002   0.99882   0.00014
  73        2S          0.00001   0.00001   0.00001   0.00656   0.00012
  74        3S         -0.00005   0.00001   0.00001  -0.00450  -0.00053
  75        4PX        -0.00001  -0.00000  -0.00001  -0.00000  -0.00000
  76        4PY        -0.00000   0.00000  -0.00000  -0.00000   0.00000
  77        4PZ        -0.00000   0.00002   0.00002   0.00076  -0.00005
  78        5PX        -0.00000   0.00005   0.00007   0.00002   0.00005
  79        5PY         0.00000  -0.00003   0.00002   0.00000   0.00000
  80        5PZ         0.00001  -0.00020  -0.00024  -0.00090  -0.00015
  81 7   O  1S          0.99876  -0.00001  -0.00001  -0.00000   0.00001
  82        2S          0.00651   0.00000   0.00000   0.00002  -0.00002
  83        3S         -0.00367   0.00008   0.00010  -0.00010   0.00008
  84        4PX        -0.00053  -0.00002  -0.00002   0.00001  -0.00001
  85        4PY         0.00000   0.00002  -0.00001   0.00000  -0.00000
  86        4PZ        -0.00065  -0.00002  -0.00002   0.00000   0.00002
  87        5PX         0.00040   0.00009   0.00010  -0.00007   0.00007
  88        5PY        -0.00000  -0.00005   0.00004  -0.00000   0.00000
  89        5PZ         0.00055   0.00008   0.00010   0.00003  -0.00010
  90 8   Ti 1S         -0.00000   0.00009   0.00011   0.00035   0.00037
  91        2S          0.00001   0.00005   0.00006   0.00011   0.00013
  92        3S         -0.00035   0.00096   0.00116  -0.00099  -0.00084
  93        4PX         0.00001   0.00002   0.00003   0.00010   0.00011
  94        4PY        -0.00000   0.00001  -0.00001   0.00000   0.00000
  95        4PZ         0.00001   0.00000   0.00000  -0.00015   0.00016
  96        5PX        -0.00015   0.00044   0.00053   0.00019   0.00022
  97        5PY        -0.00000  -0.00003   0.00002   0.00000  -0.00000
  98        5PZ         0.00011  -0.00005  -0.00006  -0.00034   0.00022
  99        6PX        -0.00003   0.00009   0.00012  -0.00025  -0.00024
 100        6PY         0.00000  -0.00017   0.00014   0.00000   0.00000
 101        6PZ        -0.00007   0.00001   0.00001  -0.00002  -0.00002
 102        7D 0       -0.00000   0.00002   0.00002   0.00000   0.00002
 103        7D+1       -0.00000   0.00001   0.00001  -0.00010   0.00010
 104        7D-1       -0.00000   0.00000  -0.00000  -0.00000  -0.00000
 105        7D+2        0.00000   0.00001   0.00002   0.00002   0.00002
 106        7D-2        0.00000   0.00002  -0.00002   0.00000  -0.00000
 107        8D 0        0.00004  -0.00002  -0.00002   0.00012   0.00013
 108        8D+1        0.00007  -0.00004  -0.00005  -0.00032   0.00024
 109        8D-1       -0.00000   0.00001  -0.00001  -0.00000  -0.00000
 110        8D+2       -0.00001  -0.00004  -0.00005   0.00052   0.00047
 111        8D-2       -0.00000  -0.00039   0.00032   0.00000  -0.00000
 112 9   O  1S         -0.00000  -0.00002   0.00001  -0.00000  -0.00000
 113        2S         -0.00000  -0.00005   0.00002   0.00001   0.00002
 114        3S          0.00000   0.00020  -0.00015   0.00007   0.00005
 115        4PX        -0.00000   0.00002  -0.00001   0.00001   0.00001
 116        4PY         0.00000  -0.00001  -0.00001   0.00003   0.00003
 117        4PZ         0.00000  -0.00000   0.00000   0.00001  -0.00001
 118        5PX         0.00001  -0.00009   0.00006   0.00000  -0.00001
 119        5PY         0.00000   0.00009   0.00002  -0.00018  -0.00017
 120        5PZ         0.00000   0.00000  -0.00001  -0.00004   0.00004
 121 10  H  1S         -0.00000  -0.00001   0.00003  -0.00006  -0.00005
 122        2S          0.00002  -0.00001  -0.00001   0.00005   0.00005
 123 11  O  1S         -0.00000   0.00001  -0.00002  -0.00000  -0.00000
 124        2S         -0.00000   0.00003  -0.00005   0.00001   0.00002
 125        3S          0.00000  -0.00018   0.00017   0.00007   0.00005
 126        4PX        -0.00000  -0.00002   0.00001   0.00001   0.00001
 127        4PY        -0.00000   0.00001   0.00001  -0.00003  -0.00003
 128        4PZ         0.00000   0.00000  -0.00000   0.00001  -0.00001
 129        5PX         0.00001   0.00008  -0.00008   0.00000  -0.00001
 130        5PY        -0.00000   0.00000  -0.00009   0.00018   0.00017
 131        5PZ         0.00000  -0.00001   0.00000  -0.00004   0.00004
 132 12  H  1S         -0.00000   0.00003  -0.00000  -0.00006  -0.00005
 133        2S          0.00002  -0.00001  -0.00001   0.00005   0.00005
                           6         7         8         9        10
                           O         O         O         O         O
     Eigenvalues --   -19.16259 -19.16256  -2.50667  -2.49711  -2.48879
   1 1   Ti 1S         -0.00001  -0.00001   0.00062  -0.01093   0.00274
   2        2S          0.00005   0.00005   0.09251   0.99215  -0.10808
   3        3S          0.00029   0.00028   0.00433   0.00771  -0.00228
   4        4PX        -0.00003  -0.00003   0.00157   0.00221  -0.00174
   5        4PY        -0.00001   0.00001  -0.00000  -0.00000  -0.00000
   6        4PZ         0.00000   0.00000  -0.00067  -0.00365   0.00038
   7        5PX         0.00022   0.00022   0.00013  -0.00045  -0.00036
   8        5PY        -0.00013   0.00013  -0.00000  -0.00000  -0.00000
   9        5PZ        -0.00002  -0.00002  -0.00026  -0.00071   0.00038
  10        6PX        -0.00009  -0.00008   0.00014  -0.00027   0.00100
  11        6PY         0.00026  -0.00026   0.00000   0.00000   0.00001
  12        6PZ        -0.00003  -0.00002   0.00046   0.00012  -0.00019
  13        7D 0       -0.00002  -0.00002  -0.00048  -0.00145  -0.00032
  14        7D+1        0.00000   0.00000  -0.00038  -0.00008  -0.00006
  15        7D-1        0.00000  -0.00000   0.00000   0.00000  -0.00000
  16        7D+2        0.00001   0.00001   0.00093   0.00180   0.00053
  17        7D-2        0.00001  -0.00001   0.00000  -0.00000   0.00000
  18        8D 0        0.00001   0.00001   0.00224   0.00221  -0.00419
  19        8D+1       -0.00000  -0.00000   0.00166   0.00128   0.00079
  20        8D-1        0.00002  -0.00002  -0.00000  -0.00000   0.00000
  21        8D+2       -0.00009  -0.00009   0.00332  -0.00563   0.00043
  22        8D-2       -0.00034   0.00035  -0.00000   0.00000  -0.00001
  23 2   Ti 1S         -0.00001  -0.00001  -0.01152   0.00142   0.00053
  24        2S         -0.00000  -0.00000   0.99693  -0.09365   0.00605
  25        3S         -0.00023  -0.00023   0.00088  -0.00337  -0.00045
  26        4PX        -0.00000  -0.00000  -0.00017  -0.00149   0.00042
  27        4PY         0.00001  -0.00001  -0.00000   0.00000   0.00000
  28        4PZ         0.00000   0.00000   0.02366  -0.00197   0.00014
  29        5PX         0.00012   0.00012   0.00457   0.00178  -0.00111
  30        5PY         0.00010  -0.00011   0.00000   0.00000   0.00000
  31        5PZ        -0.00002  -0.00002  -0.00204   0.00115  -0.00047
  32        6PX         0.00006   0.00006  -0.00096   0.00042   0.00039
  33        6PY        -0.00009   0.00009  -0.00000  -0.00000  -0.00000
  34        6PZ         0.00000   0.00000  -0.00037  -0.00042   0.00015
  35        7D 0        0.00000   0.00000  -0.00014  -0.00034   0.00007
  36        7D+1        0.00000   0.00000  -0.00089  -0.00021   0.00002
  37        7D-1       -0.00000   0.00000  -0.00000  -0.00000  -0.00000
  38        7D+2        0.00000   0.00000   0.00110   0.00084  -0.00021
  39        7D-2        0.00001  -0.00001   0.00000  -0.00000   0.00000
  40        8D 0        0.00000   0.00000   0.00021   0.00271  -0.00053
  41        8D+1       -0.00000  -0.00000   0.00172   0.00107   0.00037
  42        8D-1        0.00000  -0.00000   0.00000  -0.00000   0.00000
  43        8D+2       -0.00003  -0.00003  -0.00144   0.00247   0.00038
  44        8D-2       -0.00008   0.00008  -0.00000  -0.00000  -0.00000
  45 3   O  1S         -0.00001   0.00002  -0.00272  -0.00287   0.00035
  46        2S          0.00003  -0.00005   0.00482   0.00523  -0.00023
  47        3S         -0.00015   0.00018   0.00602   0.00573  -0.00239
  48        4PX         0.00001   0.00001   0.00394  -0.00578   0.00059
  49        4PY        -0.00001  -0.00000   0.00456   0.00460  -0.00064
  50        4PZ         0.00000  -0.00000  -0.00068   0.00092  -0.00006
  51        5PX         0.00003  -0.00007  -0.00281   0.00481  -0.00011
  52        5PY         0.00002   0.00005  -0.00152  -0.00025  -0.00001
  53        5PZ        -0.00002   0.00003   0.00077  -0.00075  -0.00036
  54 4   O  1S          0.00002  -0.00001  -0.00272  -0.00287   0.00035
  55        2S         -0.00005   0.00004   0.00482   0.00523  -0.00023
  56        3S          0.00017  -0.00016   0.00602   0.00573  -0.00238
  57        4PX         0.00001   0.00001   0.00394  -0.00578   0.00059
  58        4PY         0.00000   0.00001  -0.00456  -0.00460   0.00064
  59        4PZ        -0.00000   0.00000  -0.00068   0.00092  -0.00006
  60        5PX        -0.00007   0.00004  -0.00281   0.00481  -0.00011
  61        5PY        -0.00005  -0.00002   0.00152   0.00025   0.00001
  62        5PZ         0.00003  -0.00002   0.00077  -0.00075  -0.00036
  63 5   O  1S         -0.00000  -0.00000  -0.00022  -0.00275  -0.00274
  64        2S         -0.00001  -0.00001   0.00071   0.00434   0.00529
  65        3S          0.00012   0.00012  -0.00066   0.00859   0.00425
  66        4PX        -0.00002  -0.00002   0.00045   0.00401  -0.00558
  67        4PY         0.00001  -0.00001   0.00000   0.00000   0.00000
  68        4PZ        -0.00002  -0.00002  -0.00026  -0.00454  -0.00452
  69        5PX         0.00013   0.00013  -0.00072  -0.00310   0.00416
  70        5PY         0.00001  -0.00001  -0.00000   0.00000   0.00000
  71        5PZ         0.00007   0.00007   0.00006   0.00016   0.00164
  72 6   O  1S         -0.00000  -0.00000  -0.00025  -0.00320  -0.00235
  73        2S         -0.00001  -0.00001   0.00106   0.00558   0.00450
  74        3S          0.00013   0.00013  -0.00202   0.00750   0.00380
  75        4PX        -0.00002  -0.00002   0.00045   0.00458  -0.00535
  76        4PY         0.00000  -0.00000  -0.00000  -0.00000  -0.00000
  77        4PZ         0.00002   0.00002   0.00032   0.00526   0.00379
  78        5PX         0.00011   0.00011  -0.00096  -0.00390   0.00390
  79        5PY         0.00002  -0.00002   0.00000  -0.00000   0.00000
  80        5PZ        -0.00006  -0.00006  -0.00015  -0.00052  -0.00142
  81 7   O  1S          0.00000   0.00000  -0.00639   0.00063  -0.00004
  82        2S         -0.00000  -0.00000   0.01372  -0.00086   0.00010
  83        3S          0.00001   0.00001   0.00268  -0.00261   0.00004
  84        4PX        -0.00000  -0.00000  -0.00700   0.00084  -0.00007
  85        4PY        -0.00000   0.00000   0.00000  -0.00000  -0.00000
  86        4PZ        -0.00000  -0.00000  -0.01182   0.00123  -0.00011
  87        5PX         0.00000   0.00000   0.00211  -0.00073   0.00006
  88        5PY         0.00001  -0.00001  -0.00000  -0.00000   0.00000
  89        5PZ         0.00000   0.00000   0.00521  -0.00075   0.00031
  90 8   Ti 1S          0.00100   0.00099   0.00046  -0.00015  -0.00899
  91        2S          0.00026   0.00025   0.00371   0.10744   0.99858
  92        3S         -0.00037  -0.00036  -0.00248  -0.00302   0.00703
  93        4PX        -0.00004  -0.00004  -0.00015   0.00222   0.00725
  94        4PY         0.00005  -0.00005  -0.00000  -0.00000   0.00000
  95        4PZ         0.00000   0.00000   0.00001   0.00010   0.00094
  96        5PX        -0.00060  -0.00059  -0.00069  -0.00450  -0.00404
  97        5PY         0.00061  -0.00062  -0.00000   0.00000  -0.00000
  98        5PZ        -0.00000  -0.00000   0.00035   0.00049  -0.00003
  99        6PX         0.00019   0.00019  -0.00080   0.00040   0.00110
 100        6PY        -0.00039   0.00039  -0.00000  -0.00000  -0.00000
 101        6PZ         0.00001   0.00001  -0.00021  -0.00011   0.00003
 102        7D 0       -0.00006  -0.00005   0.00000  -0.00084  -0.00104
 103        7D+1        0.00000   0.00000  -0.00004  -0.00004  -0.00011
 104        7D-1        0.00000   0.00000  -0.00000   0.00000  -0.00000
 105        7D+2       -0.00001  -0.00001   0.00003   0.00097   0.00040
 106        7D-2       -0.00001   0.00001   0.00000  -0.00000  -0.00001
 107        8D 0       -0.00030  -0.00030  -0.00065  -0.00371   0.00094
 108        8D+1        0.00001   0.00001   0.00031   0.00039   0.00003
 109        8D-1       -0.00002   0.00002   0.00000   0.00000  -0.00000
 110        8D+2       -0.00045  -0.00044  -0.00038  -0.00408  -0.00230
 111        8D-2       -0.00070   0.00072   0.00000   0.00000  -0.00002
 112 9   O  1S          0.00995   0.99876  -0.00001  -0.00033  -0.00338
 113        2S          0.00010   0.00651   0.00010   0.00125   0.00638
 114        3S         -0.00005  -0.00435  -0.00026  -0.00203   0.00590
 115        4PX         0.00003  -0.00043   0.00006   0.00049   0.00418
 116        4PY         0.00002  -0.00051   0.00005   0.00063   0.00698
 117        4PZ         0.00000  -0.00001  -0.00000   0.00002   0.00012
 118        5PX        -0.00031   0.00043  -0.00035  -0.00155  -0.00557
 119        5PY        -0.00015   0.00049  -0.00023  -0.00057  -0.00794
 120        5PZ        -0.00001   0.00001   0.00002  -0.00007  -0.00015
 121 10  H  1S         -0.00005   0.00008  -0.00003   0.00021  -0.00083
 122        2S         -0.00011   0.00101  -0.00024  -0.00155  -0.00798
 123 11  O  1S          0.99876  -0.00996  -0.00001  -0.00033  -0.00338
 124        2S          0.00651  -0.00003   0.00010   0.00125   0.00639
 125        3S         -0.00435   0.00004  -0.00026  -0.00204   0.00588
 126        4PX        -0.00042   0.00004   0.00006   0.00049   0.00417
 127        4PY         0.00051  -0.00003  -0.00005  -0.00063  -0.00699
 128        4PZ        -0.00001   0.00000  -0.00000   0.00002   0.00012
 129        5PX         0.00041  -0.00032  -0.00035  -0.00154  -0.00553
 130        5PY        -0.00049   0.00016   0.00023   0.00057   0.00798
 131        5PZ         0.00001  -0.00001   0.00002  -0.00007  -0.00014
 132 12  H  1S          0.00008  -0.00005  -0.00003   0.00021  -0.00083
 133        2S          0.00101  -0.00012  -0.00023  -0.00154  -0.00798
                          11        12        13        14        15
                           O         O         O         O         O
     Eigenvalues --    -1.63990  -1.63169  -1.62223  -1.62172  -1.61488
   1 1   Ti 1S         -0.00290  -0.00068  -0.00000  -0.00402  -0.00000
   2        2S          0.00733  -0.00032   0.00000   0.00957   0.00000
   3        3S          0.00576   0.00203  -0.00001   0.00592  -0.00001
   4        4PX        -0.54283   0.54521  -0.00001   0.39833  -0.00015
   5        4PY         0.00001  -0.00003   0.27153   0.00000   0.94567
   6        4PZ         0.04763   0.01090   0.00002   0.05804  -0.00023
   7        5PX         0.02176   0.00063   0.00001  -0.00943   0.00000
   8        5PY        -0.00000  -0.00000  -0.01036  -0.00000   0.01065
   9        5PZ        -0.00087   0.00101  -0.00000   0.00032  -0.00000
  10        6PX         0.00676   0.00180   0.00000  -0.00193  -0.00000
  11        6PY        -0.00000   0.00000   0.00459   0.00000  -0.00650
  12        6PZ        -0.00017   0.00028   0.00000   0.00014   0.00000
  13        7D 0        0.00370  -0.00201   0.00000   0.00107   0.00000
  14        7D+1        0.00295  -0.00173   0.00000  -0.00109   0.00000
  15        7D-1       -0.00000   0.00000  -0.00092   0.00000  -0.00223
  16        7D+2       -0.00145  -0.00214   0.00000  -0.00584   0.00000
  17        7D-2        0.00000  -0.00000   0.00369  -0.00000   0.00658
  18        8D 0       -0.00265  -0.00200   0.00000   0.00157   0.00000
  19        8D+1        0.00193   0.00254   0.00000  -0.00009   0.00000
  20        8D-1        0.00000   0.00000   0.00117  -0.00000  -0.00192
  21        8D+2       -0.00419  -0.00038  -0.00000  -0.00613  -0.00000
  22        8D-2        0.00000  -0.00001  -0.00288  -0.00001   0.01132
  23 2   Ti 1S         -0.00164   0.01140   0.00000  -0.00696   0.00000
  24        2S         -0.00812  -0.03119  -0.00000   0.01216  -0.00000
  25        3S         -0.01954  -0.00783  -0.00000   0.00714   0.00000
  26        4PX         0.71098   0.10658  -0.00001   0.64213  -0.00008
  27        4PY        -0.00005  -0.00012   0.95562   0.00008  -0.28050
  28        4PZ         0.33923   0.77013   0.00015  -0.50318   0.00002
  29        5PX         0.01081  -0.00165   0.00000  -0.00170  -0.00000
  30        5PY        -0.00000   0.00000   0.00597   0.00000  -0.01438
  31        5PZ        -0.00342   0.00131   0.00000   0.00080  -0.00000
  32        6PX        -0.00020   0.00072  -0.00000   0.00079  -0.00000
  33        6PY         0.00000  -0.00000  -0.00212  -0.00000   0.00636
  34        6PZ        -0.00082  -0.00113  -0.00000  -0.00062   0.00000
  35        7D 0        0.01282   0.01232   0.00000  -0.00380  -0.00000
  36        7D+1        0.01493   0.00764  -0.00000   0.00533  -0.00000
  37        7D-1       -0.00000  -0.00000   0.00878   0.00000  -0.00223
  38        7D+2       -0.00164   0.00469   0.00000  -0.00046  -0.00000
  39        7D-2       -0.00000  -0.00000  -0.00538  -0.00000  -0.00036
  40        8D 0       -0.00212  -0.00015   0.00000   0.00134  -0.00000
  41        8D+1        0.00066  -0.00021  -0.00000   0.00046   0.00000
  42        8D-1        0.00000  -0.00000   0.00158  -0.00000  -0.00202
  43        8D+2       -0.00174   0.00305  -0.00000   0.00343  -0.00000
  44        8D-2        0.00000  -0.00000  -0.00363  -0.00000   0.00754
  45 3   O  1S          0.01574  -0.00765   0.01332   0.00305   0.00942
  46        2S         -0.03431   0.01726  -0.03124  -0.00824  -0.02193
  47        3S         -0.02323   0.00797  -0.01604  -0.00002  -0.00955
  48        4PX        -0.00095  -0.00739  -0.01038  -0.01543   0.02277
  49        4PY        -0.02328   0.01126  -0.01443  -0.00481  -0.01018
  50        4PZ         0.00190   0.00549   0.00146   0.00087  -0.00343
  51        5PX         0.00227   0.00334   0.00531   0.00716  -0.00949
  52        5PY         0.00053  -0.00002   0.00535   0.00172   0.00327
  53        5PZ         0.00036  -0.00001  -0.00012  -0.00048   0.00110
  54 4   O  1S          0.01574  -0.00764  -0.01332   0.00305  -0.00942
  55        2S         -0.03430   0.01725   0.03124  -0.00824   0.02192
  56        3S         -0.02323   0.00797   0.01604  -0.00001   0.00955
  57        4PX        -0.00095  -0.00739   0.01038  -0.01543  -0.02277
  58        4PY         0.02327  -0.01126  -0.01443   0.00481  -0.01018
  59        4PZ         0.00191   0.00549  -0.00147   0.00087   0.00342
  60        5PX         0.00227   0.00334  -0.00532   0.00716   0.00948
  61        5PY        -0.00053   0.00002   0.00535  -0.00172   0.00327
  62        5PZ         0.00036  -0.00001   0.00012  -0.00048  -0.00110
  63 5   O  1S         -0.00912   0.00967   0.00000   0.00979   0.00001
  64        2S          0.01874  -0.02156  -0.00000  -0.02200  -0.00002
  65        3S          0.01756  -0.01204  -0.00000  -0.01135  -0.00002
  66        4PX         0.00569  -0.00379  -0.00000   0.00131  -0.00000
  67        4PY         0.00001  -0.00001   0.00135  -0.00001   0.00522
  68        4PZ        -0.01337   0.01438   0.00000   0.01488   0.00001
  69        5PX        -0.00080   0.00190  -0.00000  -0.00124  -0.00000
  70        5PY         0.00000   0.00000  -0.00014   0.00000   0.00171
  71        5PZ        -0.00055   0.00022  -0.00000  -0.00118  -0.00000
  72 6   O  1S         -0.00876   0.01055  -0.00000   0.01131  -0.00001
  73        2S          0.01840  -0.02316   0.00000  -0.02542   0.00002
  74        3S          0.01472  -0.01497   0.00000  -0.01361   0.00001
  75        4PX         0.00453  -0.00475   0.00000  -0.00099   0.00001
  76        4PY        -0.00000   0.00000   0.00151   0.00001   0.00623
  77        4PZ         0.01328  -0.01557   0.00000  -0.01658   0.00001
  78        5PX        -0.00136   0.00243  -0.00000  -0.00026  -0.00001
  79        5PY        -0.00000   0.00000   0.00058   0.00000   0.00035
  80        5PZ         0.00044  -0.00040  -0.00000   0.00184  -0.00000
  81 7   O  1S         -0.02253  -0.02403  -0.00000   0.00281  -0.00000
  82        2S          0.05005   0.05456   0.00000  -0.00652   0.00000
  83        3S          0.02311   0.02076  -0.00000  -0.00241   0.00000
  84        4PX        -0.01572  -0.02409  -0.00000   0.01040  -0.00000
  85        4PY         0.00001   0.00000   0.01074   0.00000  -0.00330
  86        4PZ        -0.03471  -0.03201   0.00000  -0.00115  -0.00000
  87        5PX         0.00299   0.00370   0.00000  -0.00107  -0.00000
  88        5PY        -0.00000  -0.00000  -0.00027   0.00000   0.00083
  89        5PZ         0.00582   0.00547   0.00000  -0.00054   0.00000
  90 8   Ti 1S          0.00376  -0.00317   0.00000  -0.00307   0.00000
  91        2S         -0.00644   0.00824   0.00000   0.00903   0.00000
  92        3S          0.01342   0.00384   0.00001  -0.00639   0.00001
  93        4PX         0.16166  -0.23845  -0.00002  -0.39915  -0.00023
  94        4PY        -0.00006   0.00012   0.01383   0.00037   0.13967
  95        4PZ         0.00498  -0.00404  -0.00001  -0.00460  -0.00010
  96        5PX         0.00902  -0.00106   0.00000  -0.00641   0.00000
  97        5PY         0.00000  -0.00000   0.00355   0.00000   0.00250
  98        5PZ         0.00056  -0.00027   0.00000  -0.00088   0.00000
  99        6PX        -0.00103   0.00034   0.00000  -0.00037   0.00000
 100        6PY         0.00000   0.00000  -0.00186   0.00000   0.00136
 101        6PZ         0.00010  -0.00004  -0.00000   0.00030  -0.00000
 102        7D 0       -0.00114   0.00115   0.00000   0.00035  -0.00000
 103        7D+1        0.00017  -0.00026  -0.00000  -0.00024  -0.00000
 104        7D-1       -0.00000   0.00000   0.00001   0.00000  -0.00002
 105        7D+2        0.00440  -0.00551  -0.00000  -0.00706  -0.00000
 106        7D-2       -0.00000   0.00000  -0.00014  -0.00000  -0.00038
 107        8D 0       -0.00298   0.00299  -0.00000   0.00195  -0.00001
 108        8D+1        0.00037  -0.00008   0.00000  -0.00034   0.00000
 109        8D-1        0.00000  -0.00000   0.00008  -0.00000  -0.00022
 110        8D+2        0.00017   0.00069   0.00000   0.00028   0.00000
 111        8D-2        0.00001  -0.00001   0.00139  -0.00001   0.00736
 112 9   O  1S          0.00162  -0.00242   0.00023  -0.00407   0.00240
 113        2S         -0.00330   0.00491  -0.00061   0.00860  -0.00473
 114        3S         -0.00354   0.00502  -0.00043   0.00712  -0.00642
 115        4PX        -0.00064   0.00086  -0.00034   0.00148  -0.00274
 116        4PY        -0.00294   0.00415  -0.00035   0.00706  -0.00320
 117        4PZ        -0.00002   0.00004  -0.00001   0.00009  -0.00006
 118        5PX         0.00095  -0.00095   0.00081  -0.00206   0.00320
 119        5PY         0.00187  -0.00167   0.00037  -0.00357   0.00114
 120        5PZ         0.00004   0.00004   0.00004  -0.00001  -0.00009
 121 10  H  1S          0.00021  -0.00006  -0.00008  -0.00009   0.00025
 122        2S          0.00152  -0.00181   0.00120  -0.00357   0.00218
 123 11  O  1S          0.00162  -0.00242  -0.00023  -0.00408  -0.00241
 124        2S         -0.00330   0.00492   0.00061   0.00862   0.00475
 125        3S         -0.00353   0.00502   0.00043   0.00712   0.00642
 126        4PX        -0.00064   0.00086   0.00034   0.00148   0.00274
 127        4PY         0.00294  -0.00415  -0.00035  -0.00707  -0.00321
 128        4PZ        -0.00002   0.00004   0.00001   0.00008   0.00006
 129        5PX         0.00095  -0.00094  -0.00080  -0.00205  -0.00319
 130        5PY        -0.00188   0.00168   0.00038   0.00360   0.00115
 131        5PZ         0.00003   0.00004  -0.00004  -0.00000   0.00009
 132 12  H  1S          0.00021  -0.00006   0.00008  -0.00009  -0.00025
 133        2S          0.00152  -0.00182  -0.00120  -0.00358  -0.00219
                          16        17        18        19        20
                           O         O         O         O         O
     Eigenvalues --    -1.61346  -1.61102  -1.60925  -1.60445  -0.99051
   1 1   Ti 1S         -0.00178  -0.00002   0.00331  -0.00005   0.03183
   2        2S          0.00442   0.00003  -0.00829  -0.00046  -0.05464
   3        3S          0.00368  -0.00012   0.00128   0.00343   0.01874
   4        4PX        -0.00812  -0.00231   0.46250  -0.02691   0.00203
   5        4PY         0.00026  -0.14002  -0.00034   0.00005   0.00001
   6        4PZ         0.96608   0.00018  -0.00031  -0.22595   0.00935
   7        5PX         0.00198   0.00001   0.01368   0.00482   0.05349
   8        5PY         0.00000  -0.00341  -0.00001   0.00001  -0.00001
   9        5PZ         0.00338   0.00000  -0.00076  -0.01514  -0.00491
  10        6PX         0.00078  -0.00001   0.00484   0.00337   0.00792
  11        6PY        -0.00000  -0.00193  -0.00002  -0.00000  -0.00001
  12        6PZ        -0.00233  -0.00000   0.00021   0.00711  -0.00139
  13        7D 0       -0.00138   0.00002  -0.00385   0.00058  -0.00990
  14        7D+1       -0.00392   0.00001  -0.00178  -0.00085  -0.00310
  15        7D-1       -0.00000   0.00031   0.00000   0.00000  -0.00000
  16        7D+2       -0.00029  -0.00001   0.00243  -0.00013   0.01646
  17        7D-2        0.00000  -0.00146  -0.00001   0.00000  -0.00000
  18        8D 0        0.00016   0.00005  -0.01003   0.00073  -0.00305
  19        8D+1       -0.00687  -0.00001   0.00205   0.00825  -0.00385
  20        8D-1       -0.00000   0.00076   0.00001   0.00000  -0.00000
  21        8D+2        0.00135  -0.00001  -0.00040  -0.00070   0.00085
  22        8D-2        0.00001  -0.00761  -0.00003  -0.00001   0.00003
  23 2   Ti 1S         -0.00055   0.00000  -0.00150  -0.00007   0.00887
  24        2S          0.00124   0.00001  -0.00301  -0.00011  -0.03044
  25        3S         -0.00292   0.00004  -0.01223  -0.00712  -0.05464
  26        4PX        -0.07789  -0.00111   0.19773   0.00205   0.03516
  27        4PY        -0.00009   0.02651   0.00007  -0.00000   0.00001
  28        4PZ         0.00492   0.00049  -0.08365   0.00434  -0.01494
  29        5PX         0.00132  -0.00002   0.00678   0.00410   0.03414
  30        5PY        -0.00001   0.00419   0.00001   0.00000  -0.00000
  31        5PZ         0.00318   0.00000  -0.00140   0.00053  -0.00361
  32        6PX         0.00014  -0.00000  -0.00057  -0.00032  -0.00206
  33        6PY         0.00000   0.00001   0.00001   0.00000   0.00000
  34        6PZ        -0.00053   0.00001  -0.00080  -0.00230  -0.00122
  35        7D 0       -0.00015   0.00000  -0.00093   0.00004  -0.00740
  36        7D+1       -0.00151  -0.00001   0.00168   0.00034   0.00077
  37        7D-1       -0.00000   0.00016   0.00000  -0.00000   0.00000
  38        7D+2       -0.00068  -0.00001   0.00157   0.00020   0.00617
  39        7D-2       -0.00000   0.00029   0.00000   0.00000   0.00000
  40        8D 0        0.00183  -0.00001   0.00158  -0.00018   0.00182
  41        8D+1       -0.00393  -0.00001   0.00267   0.00115   0.00333
  42        8D-1       -0.00000   0.00040   0.00000   0.00000  -0.00000
  43        8D+2       -0.00238  -0.00001   0.00259  -0.00009  -0.00704
  44        8D-2        0.00000  -0.00261  -0.00001  -0.00000   0.00000
  45 3   O  1S          0.00131  -0.00152  -0.00416  -0.00010  -0.04361
  46        2S         -0.00272   0.00408   0.00989   0.00016   0.09266
  47        3S         -0.00208  -0.00088   0.00209   0.00063   0.08942
  48        4PX         0.00426  -0.00301  -0.00961  -0.00036  -0.00135
  49        4PY        -0.00189   0.00160   0.00599   0.00012   0.01961
  50        4PZ         0.00523   0.00050   0.00164  -0.00142   0.00025
  51        5PX        -0.00156   0.00203   0.00487   0.00021   0.00040
  52        5PY        -0.00035  -0.00067  -0.00036   0.00053   0.00946
  53        5PZ         0.00115  -0.00055  -0.00128  -0.00032   0.00073
  54 4   O  1S          0.00130   0.00156  -0.00416  -0.00010  -0.04359
  55        2S         -0.00270  -0.00417   0.00987   0.00016   0.09263
  56        3S         -0.00207   0.00085   0.00210   0.00063   0.08935
  57        4PX         0.00424   0.00311  -0.00960  -0.00036  -0.00135
  58        4PY         0.00188   0.00165  -0.00598  -0.00012  -0.01960
  59        4PZ         0.00524  -0.00052   0.00164  -0.00142   0.00024
  60        5PX        -0.00155  -0.00208   0.00485   0.00021   0.00041
  61        5PY         0.00036  -0.00067   0.00036  -0.00053  -0.00945
  62        5PZ         0.00115   0.00056  -0.00128  -0.00032   0.00073
  63 5   O  1S         -0.01263   0.00003  -0.00723  -0.00933  -0.04828
  64        2S          0.02945  -0.00006   0.01620   0.02169   0.10135
  65        3S          0.01521  -0.00005   0.00917   0.01115   0.09936
  66        4PX         0.01161   0.00010  -0.02014  -0.02084  -0.00102
  67        4PY         0.00001   0.00483   0.00003   0.00001   0.00001
  68        4PZ        -0.01381   0.00004  -0.01081  -0.00997  -0.02336
  69        5PX        -0.00469  -0.00006   0.01060   0.00920   0.00170
  70        5PY        -0.00000   0.00046  -0.00000  -0.00000   0.00000
  71        5PZ         0.00522  -0.00000   0.00207   0.00344  -0.00771
  72 6   O  1S          0.01395   0.00001  -0.00401   0.00852  -0.04628
  73        2S         -0.03269  -0.00003   0.00906  -0.02005   0.09629
  74        3S         -0.01523  -0.00003   0.00496  -0.01044   0.09840
  75        4PX        -0.01397   0.00008  -0.01821   0.02269  -0.00136
  76        4PY         0.00001   0.00405   0.00002   0.00000  -0.00001
  77        4PZ        -0.01511  -0.00002   0.00623  -0.00918   0.02184
  78        5PX         0.00529  -0.00005   0.00989  -0.01044   0.00230
  79        5PY        -0.00000   0.00110   0.00000   0.00000  -0.00001
  80        5PZ         0.00560   0.00000  -0.00102   0.00375   0.00891
  81 7   O  1S          0.00130   0.00001  -0.00114  -0.00016  -0.01127
  82        2S         -0.00290  -0.00002   0.00332   0.00061   0.02585
  83        3S         -0.00077   0.00001  -0.00157  -0.00070   0.01895
  84        4PX         0.00026  -0.00001   0.00104  -0.00008  -0.00215
  85        4PY        -0.00000   0.00031   0.00000   0.00000   0.00000
  86        4PZ         0.00245   0.00002  -0.00319  -0.00031  -0.00509
  87        5PX         0.00153   0.00000   0.00009  -0.00052   0.00007
  88        5PY         0.00000  -0.00002  -0.00000  -0.00000  -0.00000
  89        5PZ        -0.00183  -0.00001   0.00146   0.00057   0.00235
  90 8   Ti 1S          0.00024   0.00001  -0.00005   0.00030   0.06270
  91        2S         -0.00020   0.00002  -0.00665  -0.00064  -0.10545
  92        3S          0.00020   0.00009   0.00580   0.00406   0.00379
  93        4PX         0.00292  -0.00363   0.85470  -0.07199   0.04357
  94        4PY        -0.00019   0.98246   0.00442  -0.00008  -0.00036
  95        4PZ         0.21694  -0.00019   0.07495   0.96810  -0.00053
  96        5PX        -0.00022   0.00004   0.00914   0.00123   0.00781
  97        5PY         0.00000   0.01000   0.00005  -0.00000   0.00002
  98        5PZ        -0.00878  -0.00000   0.00079   0.01243   0.00041
  99        6PX        -0.00016   0.00002  -0.00084  -0.00061  -0.00231
 100        6PY        -0.00000   0.00094   0.00001   0.00000   0.00001
 101        6PZ         0.00384   0.00000  -0.00014  -0.00503   0.00081
 102        7D 0        0.00023  -0.00001   0.00243   0.00067  -0.03384
 103        7D+1        0.00395  -0.00001   0.00128   0.00940   0.00247
 104        7D-1       -0.00000   0.00003  -0.00000  -0.00000   0.00001
 105        7D+2        0.00013  -0.00005   0.00928  -0.00055  -0.01657
 106        7D-2       -0.00000  -0.00558  -0.00003  -0.00000  -0.00007
 107        8D 0       -0.00024  -0.00004   0.00680  -0.00027  -0.00179
 108        8D+1       -0.00405  -0.00000   0.00020   0.00736   0.00013
 109        8D-1        0.00000   0.00001  -0.00000   0.00000  -0.00000
 110        8D+2       -0.00095   0.00005   0.00278   0.00002   0.00074
 111        8D-2        0.00001  -0.00660  -0.00002  -0.00001   0.00004
 112 9   O  1S          0.00010   0.01672   0.00886  -0.00044  -0.15328
 113        2S         -0.00011  -0.03706  -0.02003   0.00099   0.32852
 114        3S         -0.00057  -0.02300  -0.01079   0.00054   0.29874
 115        4PX        -0.00006  -0.01713  -0.00371  -0.00005  -0.03319
 116        4PY        -0.00020  -0.02314  -0.01546   0.00077  -0.04357
 117        4PZ         0.00132  -0.00051   0.00020   0.00657  -0.00108
 118        5PX        -0.00025   0.01063   0.00805  -0.00028   0.00128
 119        5PY         0.00024   0.01885   0.00965  -0.00039   0.00217
 120        5PZ         0.00065   0.00041   0.00037   0.00082  -0.00002
 121 10  H  1S          0.00005  -0.00010  -0.00003   0.00002   0.10621
 122        2S         -0.00003   0.01954   0.01095  -0.00043   0.01629
 123 11  O  1S          0.00010  -0.01681   0.00870  -0.00044  -0.15384
 124        2S         -0.00012   0.03726  -0.01968   0.00100   0.32972
 125        3S         -0.00058   0.02316  -0.01055   0.00054   0.29988
 126        4PX        -0.00006   0.01717  -0.00354  -0.00005  -0.03277
 127        4PY         0.00020  -0.02331   0.01524  -0.00077   0.04415
 128        4PZ         0.00133   0.00051   0.00020   0.00657  -0.00101
 129        5PX        -0.00025  -0.01059   0.00790  -0.00028   0.00138
 130        5PY        -0.00025   0.01902  -0.00951   0.00040  -0.00218
 131        5PZ         0.00065  -0.00040   0.00036   0.00082  -0.00000
 132 12  H  1S          0.00005   0.00010  -0.00004   0.00002   0.10661
 133        2S         -0.00002  -0.01964   0.01077  -0.00044   0.01639
                          21        22        23        24        25
                           O         O         O         O         O
     Eigenvalues --    -0.98395  -0.98324  -0.97016  -0.96783  -0.95853
   1 1   Ti 1S          0.08191  -0.00069   0.00002  -0.03542   0.02311
   2        2S         -0.11858   0.00099  -0.00002   0.03880  -0.03396
   3        3S          0.06263  -0.00058   0.00002  -0.03281   0.02206
   4        4PX        -0.09514   0.00094   0.00003  -0.02319   0.19009
   5        4PY         0.00005  -0.00022  -0.15486   0.00005  -0.00000
   6        4PZ         0.02286  -0.00019  -0.00004  -0.00923   0.06903
   7        5PX        -0.07817   0.00085  -0.00007  -0.10664   0.03359
   8        5PY         0.00004   0.00472   0.01940  -0.00000  -0.00000
   9        5PZ         0.00209  -0.00003   0.00001   0.00597  -0.01743
  10        6PX        -0.01498   0.00016  -0.00001  -0.02061   0.01207
  11        6PY         0.00005   0.00467   0.00174   0.00001  -0.00001
  12        6PZ        -0.00227   0.00002   0.00000   0.00122  -0.00019
  13        7D 0       -0.03378   0.00030  -0.00000   0.00331   0.02482
  14        7D+1       -0.01332   0.00013  -0.00001  -0.00181   0.05021
  15        7D-1        0.00000   0.00007  -0.01256   0.00001  -0.00002
  16        7D+2        0.02489  -0.00019   0.00001  -0.01270   0.02960
  17        7D-2       -0.00003  -0.00062   0.08352  -0.00003  -0.00002
  18        8D 0       -0.01307   0.00012   0.00000   0.01299   0.00912
  19        8D+1       -0.00545   0.00004   0.00000   0.00814  -0.00856
  20        8D-1       -0.00000   0.00003  -0.00040   0.00000  -0.00001
  21        8D+2        0.02071  -0.00019   0.00001  -0.01600   0.01261
  22        8D-2       -0.00006  -0.00732  -0.01178   0.00000   0.00000
  23 2   Ti 1S          0.05713  -0.00053   0.00004   0.06258  -0.01326
  24        2S         -0.10281   0.00092  -0.00006  -0.09020   0.01338
  25        3S         -0.00751  -0.00003   0.00002   0.07478  -0.04606
  26        4PX         0.09965  -0.00086  -0.00004  -0.14996  -0.08179
  27        4PY         0.00005   0.00042  -0.12708   0.00008   0.00002
  28        4PZ        -0.07085   0.00065  -0.00011  -0.19919  -0.03091
  29        5PX        -0.00852   0.00015  -0.00002  -0.06089   0.04150
  30        5PY        -0.00001  -0.00054   0.01598  -0.00001  -0.00000
  31        5PZ         0.00840  -0.00009   0.00001   0.02465   0.00412
  32        6PX         0.00444  -0.00005   0.00000   0.00522  -0.00399
  33        6PY        -0.00002  -0.00167  -0.00533  -0.00000   0.00000
  34        6PZ        -0.00036   0.00000  -0.00000   0.00140  -0.00201
  35        7D 0       -0.01824   0.00015   0.00002   0.06271   0.02536
  36        7D+1        0.01072  -0.00011   0.00003   0.08109   0.01900
  37        7D-1       -0.00000  -0.00006   0.00998  -0.00002  -0.00001
  38        7D+2        0.01881  -0.00017   0.00001   0.02178   0.00145
  39        7D-2        0.00002   0.00037  -0.07128   0.00001   0.00001
  40        8D 0       -0.00440   0.00005  -0.00000  -0.00411   0.01037
  41        8D+1        0.00106  -0.00000   0.00000  -0.00327  -0.00120
  42        8D-1       -0.00000  -0.00021   0.00145  -0.00000  -0.00000
  43        8D+2       -0.00538   0.00004   0.00000   0.01569  -0.00780
  44        8D-2        0.00000   0.00000  -0.00205   0.00000  -0.00000
  45 3   O  1S         -0.14247   0.00064   0.17342   0.02288   0.06479
  46        2S          0.29954  -0.00083  -0.36313  -0.04997  -0.13597
  47        3S          0.30218  -0.00413  -0.38998  -0.04450  -0.14257
  48        4PX        -0.00148   0.00010   0.00195   0.00271  -0.00144
  49        4PY         0.06010  -0.00022  -0.06342  -0.00901  -0.02082
  50        4PZ         0.00005   0.00004  -0.00099  -0.00310   0.00173
  51        5PX        -0.00317   0.00002   0.00041  -0.00144  -0.00175
  52        5PY         0.02908  -0.00092  -0.04343  -0.00495  -0.01876
  53        5PZ         0.00101  -0.00041  -0.00076  -0.00119   0.00166
  54 4   O  1S         -0.14236   0.00188  -0.17345   0.02301   0.06483
  55        2S          0.29929  -0.00447   0.36320  -0.05023  -0.13605
  56        3S          0.30198  -0.00123   0.39004  -0.04478  -0.14266
  57        4PX        -0.00148  -0.00008  -0.00195   0.00272  -0.00144
  58        4PY        -0.06006   0.00084  -0.06344   0.00906   0.02083
  59        4PZ         0.00003  -0.00004   0.00097  -0.00310   0.00173
  60        5PX        -0.00317   0.00004  -0.00042  -0.00144  -0.00175
  61        5PY        -0.02906  -0.00041  -0.04343   0.00498   0.01877
  62        5PZ         0.00102   0.00039   0.00075  -0.00119   0.00166
  63 5   O  1S         -0.06133   0.00046  -0.00007   0.04289  -0.03383
  64        2S          0.13147  -0.00099   0.00015  -0.08998   0.07264
  65        3S          0.12141  -0.00092   0.00015  -0.08913   0.05941
  66        4PX         0.00551  -0.00005   0.00000  -0.00033  -0.00222
  67        4PY         0.00004   0.00256  -0.00385  -0.00001   0.00000
  68        4PZ        -0.02879   0.00022  -0.00003   0.01747  -0.01285
  69        5PX        -0.00201   0.00002   0.00000  -0.00140  -0.00056
  70        5PY         0.00002   0.00105  -0.00154  -0.00000   0.00000
  71        5PZ        -0.00905   0.00007  -0.00002   0.00589  -0.00659
  72 6   O  1S         -0.05105   0.00034  -0.00000   0.05096  -0.21557
  73        2S          0.10804  -0.00072   0.00001  -0.10559   0.45231
  74        3S          0.10442  -0.00070  -0.00000  -0.11315   0.47065
  75        4PX         0.00303  -0.00003  -0.00000  -0.00044  -0.00002
  76        4PY         0.00001   0.00226  -0.00332   0.00001  -0.00003
  77        4PZ         0.02410  -0.00016   0.00000  -0.02002   0.07639
  78        5PX         0.00198  -0.00002   0.00000  -0.00349  -0.00027
  79        5PY         0.00001   0.00103  -0.00144   0.00000  -0.00002
  80        5PZ         0.00814  -0.00005   0.00000  -0.00961   0.05111
  81 7   O  1S         -0.05972   0.00056  -0.00011  -0.23319  -0.04486
  82        2S          0.13121  -0.00122   0.00025   0.50818   0.09839
  83        3S          0.11908  -0.00112   0.00023   0.48606   0.09229
  84        4PX        -0.01149   0.00011  -0.00002  -0.04796  -0.00963
  85        4PY         0.00000  -0.00002  -0.00264   0.00001   0.00000
  86        4PZ        -0.02175   0.00020  -0.00003  -0.06505  -0.01058
  87        5PX        -0.00418   0.00004  -0.00001  -0.02044  -0.00269
  88        5PY         0.00000   0.00017  -0.00180   0.00000   0.00000
  89        5PZ        -0.00241   0.00003  -0.00001  -0.02817  -0.00766
  90 8   Ti 1S         -0.00799   0.00018   0.00000  -0.01695   0.03836
  91        2S         -0.00488  -0.00014  -0.00002   0.01924  -0.05930
  92        3S         -0.10017   0.00098  -0.00006  -0.04933   0.00934
  93        4PX        -0.09572   0.00100  -0.00004   0.05477  -0.13457
  94        4PY         0.00158   0.16705   0.00189   0.00001  -0.00004
  95        4PZ        -0.00835   0.00011  -0.00003  -0.00063   0.06832
  96        5PX        -0.07432   0.00073  -0.00004  -0.03646   0.02316
  97        5PY        -0.00010  -0.00992  -0.01154  -0.00000   0.00001
  98        5PZ        -0.00354   0.00003   0.00000   0.00070  -0.00668
  99        6PX         0.00514  -0.00005  -0.00000   0.00483  -0.00463
 100        6PY        -0.00006  -0.00612   0.00050  -0.00001   0.00001
 101        6PZ         0.00151  -0.00001  -0.00000  -0.00155   0.00256
 102        7D 0        0.01444  -0.00018   0.00000  -0.00610   0.01116
 103        7D+1        0.00310  -0.00002   0.00002   0.00082  -0.03843
 104        7D-1        0.00000   0.00172  -0.00001   0.00001  -0.00001
 105        7D+2        0.02742  -0.00019   0.00001  -0.01412   0.03441
 106        7D-2        0.00053   0.05877   0.00012   0.00001  -0.00001
 107        8D 0        0.00997  -0.00009   0.00001  -0.00149   0.00337
 108        8D+1       -0.00224   0.00002  -0.00000   0.00070   0.00054
 109        8D-1       -0.00001  -0.00010  -0.00021   0.00000  -0.00001
 110        8D+2       -0.01678   0.00020  -0.00001  -0.00531   0.01033
 111        8D-2       -0.00008  -0.00863  -0.01237   0.00001  -0.00001
 112 9   O  1S          0.05661  -0.16677  -0.00065  -0.01232   0.02043
 113        2S         -0.11987   0.35566   0.00100   0.02711  -0.04387
 114        3S         -0.11598   0.33520   0.00478   0.02257  -0.04029
 115        4PX         0.01292  -0.04405   0.00021  -0.00308   0.00567
 116        4PY         0.02017  -0.05532  -0.00034  -0.00558   0.01209
 117        4PZ         0.00030  -0.00137   0.00001  -0.00013   0.00140
 118        5PX        -0.00414   0.00429  -0.00287  -0.00039  -0.00209
 119        5PY        -0.00723   0.01392   0.00130  -0.00053  -0.00751
 120        5PZ        -0.00017   0.00016  -0.00004  -0.00002   0.00102
 121 10  H  1S         -0.04097   0.11989   0.00052   0.00929  -0.01699
 122        2S         -0.01007   0.02486  -0.00199   0.00139  -0.00614
 123 11  O  1S          0.05969   0.16519   0.00067  -0.01227   0.02036
 124        2S         -0.12642  -0.35231  -0.00104   0.02700  -0.04371
 125        3S         -0.12219  -0.33197  -0.00480   0.02246  -0.04011
 126        4PX         0.01350   0.04305  -0.00021  -0.00301   0.00556
 127        4PY        -0.02135  -0.05523  -0.00035   0.00560  -0.01211
 128        4PZ         0.00029   0.00128  -0.00001  -0.00012   0.00138
 129        5PX        -0.00421  -0.00424   0.00286  -0.00038  -0.00210
 130        5PY         0.00746   0.01375   0.00131   0.00052   0.00754
 131        5PZ        -0.00016  -0.00017   0.00004  -0.00002   0.00102
 132 12  H  1S         -0.04318  -0.11877  -0.00054   0.00925  -0.01694
 133        2S         -0.01047  -0.02461   0.00198   0.00141  -0.00618
                          26        27        28        29        30
                           O         O         O         O         O
     Eigenvalues --    -0.95374  -0.53539  -0.52553  -0.45721  -0.44890
   1 1   Ti 1S          0.00693   0.00244  -0.00001   0.11850   0.08016
   2        2S         -0.01096   0.00451  -0.00002  -0.08618  -0.05534
   3        3S         -0.00609  -0.02254  -0.00020   0.08765   0.06537
   4        4PX         0.11208  -0.00474   0.00002  -0.01241   0.02719
   5        4PY         0.00009  -0.00003  -0.00650  -0.00001  -0.00000
   6        4PZ        -0.11811   0.00040  -0.00001   0.00325  -0.01249
   7        5PX         0.00986  -0.09617   0.00044  -0.03944   0.00724
   8        5PY        -0.00002   0.00000   0.00375   0.00000   0.00001
   9        5PZ         0.01480   0.00737  -0.00002   0.01248   0.00395
  10        6PX        -0.00344  -0.00755   0.00005  -0.00086  -0.00707
  11        6PY        -0.00001  -0.00001  -0.01663   0.00001  -0.00000
  12        6PZ         0.00112   0.00143  -0.00002  -0.01343   0.00022
  13        7D 0        0.01369   0.00583  -0.00002  -0.07843  -0.09045
  14        7D+1       -0.06250   0.00042  -0.00002  -0.15845   0.14604
  15        7D-1       -0.00001   0.00000   0.00004  -0.00001  -0.00001
  16        7D+2        0.01622  -0.00432   0.00001   0.18816   0.16723
  17        7D-2        0.00001  -0.00006  -0.01955   0.00006  -0.00006
  18        8D 0        0.00486  -0.00007   0.00001  -0.05187  -0.06173
  19        8D+1        0.00445   0.00051  -0.00001  -0.04128   0.03589
  20        8D-1       -0.00001   0.00000   0.00088   0.00001   0.00001
[...]
  56         V                -0.063749          4.010837
  57         V                -0.053142          4.014651
  58         V                -0.051541          3.751388
  59         V                -0.045741          3.769465
  60         V                -0.040128          3.901601
  61         V                -0.037712          4.165286
  62         V                -0.032625          4.192311
  63         V                -0.008937          0.451899
  64         V                -0.003062          1.032456
  65         V                 0.005363          0.410970
  66         V                 0.009801          0.240942
  67         V                 0.016843          0.287353
  68         V                 0.019200          0.278812
  69         V                 0.024717          0.198343
  70         V                 0.040996          0.228545
  71         V                 0.042839          0.211643
  72         V                 0.045494          0.181659
  73         V                 0.066253          0.501803
  74         V                 0.089735          0.711798
  75         V                 0.113792          0.752938
  76         V                 0.116667          0.799848
  77         V                 0.133023          0.784896
  78         V                 0.134450          0.871366
  79         V                 0.150676          1.144443
  80         V                 0.158634          1.094391
  81         V                 0.159293          0.975646
  82         V                 0.169337          1.114051
  83         V                 0.183729          0.858645
  84         V                 0.197496          1.163068
  85         V                 0.208006          1.045150
  86         V                 0.302021          1.455893
  87         V                 0.302801          1.437242
  88         V                 0.317266          1.359840
  89         V                 0.324423          1.633586
  90         V                 0.330665          1.359228
  91         V                 0.332271          1.416965
  92         V                 0.332701          1.413559
  93         V                 0.355600          1.458248
  94         V                 0.356989          1.350076
  95         V                 0.367006          1.321876
  96         V                 0.370648          1.271139
  97         V                 0.399373          2.120992
  98         V                 0.437688          1.598404
  99         V                 0.483398          1.544074
 100         V                 0.495362          1.649735
 101         V                 0.601879          1.967311
 102         V                 0.643245          2.756924
 103         V                 0.687914          2.885168
 104         V                 0.711825          2.810848
 105         V                 0.716519          2.793404
 106         V                 0.731292          2.854326
 107         V                 0.752498          2.826664
 108         V                 0.767646          2.965974
 109         V                 0.781299          2.869728
 110         V                 0.788492          3.235307
 111         V                 0.802214          2.695885
 112         V                 0.818836          2.757001
 113         V                 0.828419          2.932981
 114         V                 0.853322          3.015607
 115         V                 0.874944          2.893421
 116         V                 0.897666          2.956403
 117         V                 0.911433          2.861801
 118         V                 0.951972          3.210097
 119         V                 0.953171          3.378493
 120         V                 0.968981          2.993369
 121         V                 1.018355          2.925145
 122         V                 1.037827          2.917771
 123         V                 1.066669          3.309177
 124         V                 1.301417          3.774416
 125         V                 1.454385          3.955268
 126         V                 1.467248          4.181228
 127         V                 1.510690          4.303068
 128         V                 1.572538          4.088287
 129         V                 1.589169          4.147603
 130         V                 1.673141          4.155899
 131         V                 3.740880          2.399565
 132         V                11.022795          3.015653
 133         V                16.161949          4.131526
 Orbital energies and kinetic energies (beta):
                                 1                 2
   1         O               -19.205872         29.133310
   2         O               -19.193026         29.128739
   3         O               -19.193016         29.128738
   4         O               -19.181642         29.128151
   5         O               -19.177227         29.128343
   6         O               -19.161929         29.124853
   7         O               -19.161897         29.124862
   8         O                -2.513063          1.341835
   9         O                -2.501173          1.342144
  10         O                -2.490349          1.346321
  11         O                -1.646326          2.325351
  12         O                -1.637863          2.343346
  13         O                -1.627443          2.381943
  14         O                -1.626907          2.383029
  15         O                -1.618706          2.388060
  16         O                -1.617934          2.381934
  17         O                -1.612162          2.379820
  18         O                -1.611711          2.398683
  19         O                -1.606462          2.389880
  20         O                -0.988085          2.783680
  21         O                -0.981545          2.831532
  22         O                -0.969519          2.922974
  23         O                -0.954802          3.085205
  24         O                -0.947750          3.064550
  25         O                -0.941003          3.074230
  26         O                -0.929494          3.168977
  27         O                -0.534906          2.174392
  28         O                -0.525056          2.313891
  29         O                -0.442851          2.341874
  30         O                -0.437607          2.606877
  31         O                -0.429649          2.557840
  32         O                -0.420956          2.450306
  33         O                -0.409085          2.349950
  34         O                -0.400796          2.310504
  35         O                -0.398768          2.343226
  36         O                -0.397249          2.191326
  37         O                -0.394204          2.426122
  38         O                -0.386839          2.396986
  39         O                -0.384123          2.242196
  40         O                -0.362577          2.448020
  41         O                -0.359945          2.258047
  42         O                -0.358938          2.228593
  43         O                -0.349314          2.396477
  44         O                -0.331712          2.363658
  45         O                -0.330851          2.418826
  46         O                -0.323393          2.407513
  47         V                -0.285461          2.403424
  48         V                -0.141055          3.790007
  49         V                -0.131066          3.751687
  50         V                -0.112334          3.728312
  51         V                -0.105551          3.800584
  52         V                -0.101130          3.865690
  53         V                -0.095301          3.477005
  54         V                -0.076011          3.929328
  55         V                -0.073220          4.119584
  56         V                -0.063981          4.014565
  57         V                -0.053599          4.027821
  58         V                -0.051162          3.730260
  59         V                -0.044656          3.800419
  60         V                -0.039353          3.831668
  61         V                -0.037843          4.135174
  62         V                -0.030476          4.100739
  63         V                -0.008396          0.416953
  64         V                -0.001571          1.114403
  65         V                 0.005703          0.423929
  66         V                 0.011323          0.294027
  67         V                 0.017490          0.277834
  68         V                 0.019558          0.278137
  69         V                 0.025513          0.204903
  70         V                 0.041277          0.226519
  71         V                 0.042982          0.209223
  72         V                 0.045912          0.187873
  73         V                 0.067670          0.529736
  74         V                 0.090318          0.715246
  75         V                 0.114655          0.759449
  76         V                 0.118826          0.802770
  77         V                 0.135003          0.870800
  78         V                 0.135092          0.812361
  79         V                 0.152199          1.191731
  80         V                 0.159056          1.097292
  81         V                 0.160291          0.933573
  82         V                 0.170160          1.107458
  83         V                 0.185322          0.869143
  84         V                 0.197772          1.160393
  85         V                 0.208951          1.047345
  86         V                 0.302805          1.454675
  87         V                 0.304908          1.433639
  88         V                 0.318565          1.354071
  89         V                 0.326146          1.608445
  90         V                 0.331140          1.355890
  91         V                 0.333255          1.404132
  92         V                 0.333867          1.428083
  93         V                 0.355533          1.456227
  94         V                 0.357421          1.351485
  95         V                 0.367529          1.321522
  96         V                 0.371029          1.258313
  97         V                 0.402033          2.115955
  98         V                 0.439232          1.593277
  99         V                 0.486318          1.548286
 100         V                 0.496009          1.650899
 101         V                 0.605253          1.996419
 102         V                 0.647060          2.782839
 103         V                 0.697617          2.939588
 104         V                 0.716169          2.830158
 105         V                 0.721689          2.826579
 106         V                 0.734276          2.868222
 107         V                 0.756423          2.836342
 108         V                 0.778803          3.019478
 109         V                 0.783610          2.879924
 110         V                 0.794270          3.276310
 111         V                 0.819104          2.905209
 112         V                 0.824942          2.790114
 113         V                 0.839718          2.861592
 114         V                 0.856090          3.030824
 115         V                 0.876600          2.896922
 116         V                 0.905426          2.996602
 117         V                 0.916998          2.888518
 118         V                 0.953787          3.252962
 119         V                 0.953938          3.293032
 120         V                 0.972516          3.047375
 121         V                 1.023013          2.943551
 122         V                 1.038264          2.921457
 123         V                 1.069047          3.319038
 124         V                 1.317708          3.791705
 125         V                 1.459673          3.970390
 126         V                 1.471899          4.171500
 127         V                 1.515448          4.314555
 128         V                 1.576101          4.113912
 129         V                 1.594600          4.162114
 130         V                 1.680117          4.172585
 131         V                 3.744873          2.404054
 132         V                11.029318          3.016155
 133         V                16.167231          4.131514
 Total kinetic energy from orbitals= 5.977193802639D+02
                          Isotropic Fermi Contact Couplings
        Atom                 a.u.       MegaHertz       Gauss      10(-4) cm-1
     1  Ti(47)             0.00000      -0.00015      -0.00005      -0.00005
     2  Ti(47)             0.00000      -0.00018      -0.00006      -0.00006
     3  O(17)              0.04293     -26.02365      -9.28589      -8.68056
     4  O(17)              0.04292     -26.01947      -9.28439      -8.67916
     5  O(17)              0.03937     -23.86345      -8.51507      -7.95999
     6  O(17)              0.04203     -25.47807      -9.09121      -8.49857
     7  O(17)              0.09697     -58.78395     -20.97558     -19.60822
     8  Ti(47)             0.00000      -0.00010      -0.00004      -0.00003
     9  O(17)              0.00703      -4.26126      -1.52052      -1.42140
    10  H(1)              -0.00037      -1.63925      -0.58492      -0.54679
    11  O(17)              0.00700      -4.24091      -1.51326      -1.41461
    12  H(1)              -0.00037      -1.63191      -0.58231      -0.54435
 --------------------------------------------------------
       Center         ----  Spin Dipole Couplings  ----
                      3XX-RR        3YY-RR        3ZZ-RR
 --------------------------------------------------------
     1   Atom        0.004490      0.013929     -0.018419
     2   Atom       -0.023844      0.055261     -0.031418
     3   Atom       -0.320294     -0.293298      0.613593
     4   Atom       -0.320217     -0.293212      0.613430
     5   Atom       -0.229445     -0.339742      0.569187
     6   Atom       -0.273773     -0.284595      0.558367
     7   Atom        0.057079     -0.873091      0.816012
     8   Atom       -0.000720      0.009779     -0.009059
     9   Atom       -0.046715     -0.051183      0.097898
    10   Atom        0.000099      0.001786     -0.001885
    11   Atom       -0.046433     -0.050934      0.097367
    12   Atom        0.000050      0.001830     -0.001880
 --------------------------------------------------------
                        XY            XZ            YZ
 --------------------------------------------------------
     1   Atom        0.000012      0.004638      0.000004
     2   Atom       -0.000002     -0.010016      0.000016
     3   Atom       -0.048708      0.220120     -0.252050
     4   Atom        0.048715      0.220123      0.252014
     5   Atom        0.000293     -0.302713     -0.000864
     6   Atom       -0.000017      0.078682     -0.000145
     7   Atom        0.000220     -1.283323     -0.000294
     8   Atom       -0.000012     -0.000280      0.000004
     9   Atom        0.001403      0.000292     -0.005209
    10   Atom        0.004530      0.000230      0.000175
    11   Atom       -0.001409      0.000201      0.005001
    12   Atom       -0.004495      0.000223     -0.000173
 --------------------------------------------------------


 ---------------------------------------------------------------------------------
              Anisotropic Spin Dipole Couplings in Principal Axis System
 ---------------------------------------------------------------------------------

       Atom             a.u.   MegaHertz   Gauss  10(-4) cm-1        Axes

              Baa    -0.0193     0.582     0.208     0.194 -0.1912 -0.0001  0.9816
     1 Ti(47) Bbb     0.0054    -0.162    -0.058    -0.054  0.9816 -0.0015  0.1912
              Bcc     0.0139    -0.420    -0.150    -0.140  0.0015  1.0000  0.0003
 
              Baa    -0.0383     1.155     0.412     0.385  0.5685 -0.0001  0.8227
     2 Ti(47) Bbb    -0.0169     0.510     0.182     0.170  0.8227  0.0002 -0.5685
              Bcc     0.0553    -1.665    -0.594    -0.555 -0.0001  1.0000  0.0002
 
              Baa    -0.3731    26.996     9.633     9.005  0.8575 -0.4191 -0.2984
     3 O(17)  Bbb    -0.3543    25.638     9.148     8.552  0.4695  0.8746  0.1210
              Bcc     0.7274   -52.633   -18.781   -17.557  0.2103 -0.2438  0.9468
 
              Baa    -0.3730    26.991     9.631     9.003  0.8578  0.4186 -0.2984
     4 O(17)  Bbb    -0.3542    25.632     9.146     8.550 -0.4691  0.8748 -0.1211
              Bcc     0.7272   -52.622   -18.777   -17.553  0.2103  0.2438  0.9467
 
              Baa    -0.3397    24.584     8.772     8.200 -0.0006  1.0000  0.0007
     5 O(17)  Bbb    -0.3312    23.967     8.552     7.994  0.9479  0.0003  0.3187
              Bcc     0.6710   -48.550   -17.324   -16.195 -0.3187 -0.0009  0.9479
 
              Baa    -0.2846    20.593     7.348     6.869  0.0010  1.0000  0.0001
     6 O(17)  Bbb    -0.2811    20.344     7.259     6.786  0.9956 -0.0010 -0.0933
              Bcc     0.5657   -40.937   -14.607   -13.655  0.0933 -0.0002  0.9956
 
              Baa    -0.9017    65.247    23.282    21.764  0.8011  0.0000  0.5985
     7 O(17)  Bbb    -0.8731    63.176    22.543    21.073 -0.0001  1.0000  0.0001
              Bcc     1.7748  -128.423   -45.825   -42.837 -0.5985 -0.0001  0.8011
 
              Baa    -0.0091     0.273     0.097     0.091  0.0335 -0.0002  0.9994
     8 Ti(47) Bbb    -0.0007     0.021     0.008     0.007  0.9994  0.0011 -0.0335
              Bcc     0.0098    -0.295    -0.105    -0.098 -0.0011  1.0000  0.0002
 
              Baa    -0.0518     3.745     1.336     1.249 -0.2696  0.9624  0.0340
     9 O(17)  Bbb    -0.0463     3.352     1.196     1.118  0.9630  0.2695  0.0078
              Bcc     0.0981    -7.097    -2.532    -2.367  0.0017 -0.0349  0.9994
 
              Baa    -0.0037    -1.957    -0.698    -0.653  0.7693 -0.6378 -0.0366
    10 H(1)   Bbb    -0.0019    -1.010    -0.360    -0.337  0.0041 -0.0524  0.9986
              Bcc     0.0056     2.967     1.059     0.990  0.6389  0.7684  0.0377
 
              Baa    -0.0515     3.726     1.330     1.243  0.2691  0.9626 -0.0327
    11 O(17)  Bbb    -0.0460     3.331     1.189     1.111  0.9631 -0.2689  0.0080
              Bcc     0.0975    -7.058    -2.518    -2.354  0.0011  0.0337  0.9994
 
              Baa    -0.0036    -1.945    -0.694    -0.649  0.7729  0.6335 -0.0356
    12 H(1)   Bbb    -0.0019    -1.007    -0.359    -0.336  0.0040  0.0513  0.9987
              Bcc     0.0055     2.952     1.053     0.985 -0.6345  0.7721 -0.0371
 

 ---------------------------------------------------------------------------------


 Test job not archived.
 1\1\GINC-POP-OS\SP\UB3LYP\LANL2DZ\H2O7Ti3(1+,2)\RHEINHEIMER\07-Jun-202
 1\0\\#t B3LYP/LANL2DZ # SCRF=(Solvent=Water) # Gfinput IOP(6/7=3) Pop=
 hirshfeld Density Test # Units(Ang,Deg)\\3-tio2.pdb\\1,2\Ti,0,-0.32444
 ,-0.00006,-0.05383\Ti,0,-3.0684,-0.00002,0.37802\O,0,-1.65718,-1.23223
 ,0.15453\O,0,-1.65723,1.23217,0.15427\O,0,1.1095,-0.00065,-1.27744\O,0
 ,1.0367,0.00028,1.18443\O,0,-3.93873,-0.00023,-1.02618\Ti,0,2.45252,-0
 .00006,-0.02878\O,0,3.35891,-1.53277,-0.0025\H,0,3.90908,-2.32849,0.01
 445\O,0,3.35749,1.53329,-0.00295\H,0,3.90206,2.33284,0.01316\\Version=
 ES64L-G16RevA.03\State=2-A\HF=-702.4353395\S2=0.7864\S2-1=0.\S2A=0.750
 959\RMSD=8.923e-09\Dipole=-2.4024142,0.0044645,2.0828303\Quadrupole=30
 .0667276,-12.2789888,-17.7877388,0.0040504,-15.8243014,-0.0061953\PG=C
 01 [X(H2O7Ti3)]\\@


    WHAT WE HAVE LEARNED
 IS LIKE A HANDFUL OF EARTH;
  WHAT WE HAVE YET TO LEARN
   IS LIKE THE WHOLE WORLD.

         -- AVVAYIAR
 Job cpu time:       0 days  0 hours 10 minutes 59.4 seconds.
 Elapsed time:       0 days  0 hours  1 minutes 37.5 seconds.
 File lengths (MBytes):  RWF=     58 Int=      0 D2E=      0 Chk=      3 Scr=      1
 Normal termination of Gaussian 16 at Mon Jun  7 17:26:17 2021.
