 Entering Gaussian System, Link 0=g16
 Input=w-3-tio2-p_opt_g09.com
 Output=w-3-tio2-p_opt_g09.log
 Initial command:
 /home/rheinheimer/Apps//g16/l1.exe "/home/rheinheimer/Apps/scrgauss/Gau-1580369.inp" -scrdir="/home/rheinheimer/Apps/scrgauss/"
 Entering Link 1 = /home/rheinheimer/Apps//g16/l1.exe PID=   1580371.
  
 Copyright (c) 1988,1990,1992,1993,1995,1998,2003,2009,2016,
            Gaussian, Inc.  All Rights Reserved.
  
 This is part of the Gaussian(R) 16 program.  It is based on
 the Gaussian(R) 09 system (copyright 2009, Gaussian, Inc.),
 the Gaussian(R) 03 system (copyright 2003, Gaussian, Inc.),
 the Gaussian(R) 98 system (copyright 1998, Gaussian, Inc.),
 the Gaussian(R) 94 system (copyright 1995, Gaussian, Inc.),
 the Gaussian 92(TM) system (copyright 1992, Gaussian, Inc.),
 the Gaussian 90(TM) system (copyright 1990, Gaussian, Inc.),
 the Gaussian 88(TM) system (copyright 1988, Gaussian, Inc.),
 the Gaussian 86(TM) system (copyright 1986, Carnegie Mellon
 University), and the Gaussian 82(TM) system (copyright 1983,
 Carnegie Mellon University). Gaussian is a federally registered
 trademark of Gaussian, Inc.
  
 This software contains proprietary and confidential information,
 including trade secrets, belonging to Gaussian, Inc.
  
 This software is provided under written license and may be
 used, copied, transmitted, or stored only in accord with that
 written license.
  
 The following legend is applicable only to US Government
 contracts under FAR:
  
                    RESTRICTED RIGHTS LEGEND
  
 Use, reproduction and disclosure by the US Government is
 subject to restrictions as set forth in subparagraphs (a)
 and (c) of the Commercial Computer Software - Restricted
 Rights clause in FAR 52.227-19.
  
 Gaussian, Inc.
 340 Quinnipiac St., Bldg. 40, Wallingford CT 06492
  
  
 ---------------------------------------------------------------
 Warning -- This program may not be used in any manner that
 competes with the business of Gaussian, Inc. or will provide
 assistance to any competitor of Gaussian, Inc.  The licensee
 of this program is prohibited from giving any competitor of
 Gaussian, Inc. access to this program.  By using this program,
 the user acknowledges that Gaussian, Inc. is engaged in the
 business of creating and licensing software in the field of
 computational chemistry and represents and warrants to the
 licensee that it is not a competitor of Gaussian, Inc. and that
 it will not use this program in any manner prohibited above.
 ---------------------------------------------------------------
  

 Cite this work as:
 Gaussian 16, Revision A.03,
 M. J. Frisch, G. W. Trucks, H. B. Schlegel, G. E. Scuseria, 
 M. A. Robb, J. R. Cheeseman, G. Scalmani, V. Barone, 
 G. A. Petersson, H. Nakatsuji, X. Li, M. Caricato, A. V. Marenich, 
 J. Bloino, B. G. Janesko, R. Gomperts, B. Mennucci, H. P. Hratchian, 
 J. V. Ortiz, A. F. Izmaylov, J. L. Sonnenberg, D. Williams-Young, 
 F. Ding, F. Lipparini, F. Egidi, J. Goings, B. Peng, A. Petrone, 
 T. Henderson, D. Ranasinghe, V. G. Zakrzewski, J. Gao, N. Rega, 
 G. Zheng, W. Liang, M. Hada, M. Ehara, K. Toyota, R. Fukuda, 
 J. Hasegawa, M. Ishida, T. Nakajima, Y. Honda, O. Kitao, H. Nakai, 
 T. Vreven, K. Throssell, J. A. Montgomery, Jr., J. E. Peralta, 
 F. Ogliaro, M. J. Bearpark, J. J. Heyd, E. N. Brothers, K. N. Kudin, 
 V. N. Staroverov, T. A. Keith, R. Kobayashi, J. Normand, 
 K. Raghavachari, A. P. Rendell, J. C. Burant, S. S. Iyengar, 
 J. Tomasi, M. Cossi, J. M. Millam, M. Klene, C. Adamo, R. Cammi, 
 J. W. Ochterski, R. L. Martin, K. Morokuma, O. Farkas, 
 J. B. Foresman, and D. J. Fox, Gaussian, Inc., Wallingford CT, 2016.
 
 ******************************************
 Gaussian 16:  ES64L-G16RevA.03 25-Dec-2016
                 7-Jun-2021 
 ******************************************
 %nproc=8
 Will use up to    8 processors via shared memory.
 %Mem=4GB
 ----------------------------------------------------------------------
 #P B3LYP/LANL2DZ # Opt # SCRF=(Solvent=Water) # Gfinput IOP(6/7=3) Pop
 =Full Density Test # Units(Ang,Deg)
 ----------------------------------------------------------------------
 1/18=20,19=15,26=3,38=1/1,3;
 2/9=110,12=2,17=6,18=5,40=1/2;
 3/5=6,6=3,11=2,24=10,25=1,30=1,70=2201,71=1,72=1,74=-5/1,2,3;
 4//1;
 5/5=2,38=5,53=1/2;
 6/7=3,22=-1,28=1/1;
 7//1,2,3,16;
 1/18=20,19=15,26=3/3(2);
 2/9=110/2;
 99//99;
 2/9=110/2;
 3/5=6,6=3,11=2,25=1,30=1,70=2205,71=1,72=1,74=-5/1,2,3;
 4/5=5,16=3,69=1/1;
 5/5=2,38=5,53=1/2;
 7//1,2,3,16;
 1/18=20,19=15,26=3/3(-5);
 2/9=110/2;
 6/7=3,19=2,22=-1,28=1/1;
 99/9=1/99;
 Leave Link    1 at Mon Jun  7 16:38:08 2021, MaxMem=   536870912 cpu:               2.5 elap:               0.4
 (Enter /home/rheinheimer/Apps//g16/l101.exe)
 ----------
 3-tio2.pdb
 ----------
 Symbolic Z-matrix:
 Charge =  0 Multiplicity = 1
 Ti                    1.01246   1.273    -0.00147 
 Ti                    3.73973   1.21205  -0.05736 
 O                     2.46234  -0.09207  -0.18836 
 O                     2.52913   2.57004   0.12513 
 O                    -0.17058   1.1469    1.34579 
 O                    -0.21942   1.48818  -1.29253 
 O                     5.39958   1.17128  -0.0467 
 Ti                   -1.73503   1.37387   0.0629 
 O                    -2.69836  -0.08425  -0.11378 
 H                    -3.24128  -0.87319  -0.20844 
 O                    -2.59366   2.88934   0.29184 
 H                    -3.08573   3.70663   0.41966 
 
 Add atom      2 valence  4 ND=      0 dihedral       1      2      3      4
 Add atom      2 valence  4 ND=      0 dihedral       1      2      3      7
 Add atom      2 valence  4 ND=      0 dihedral       1      2      4      7
 ITRead=  0  0  0  0  0  0  0  0  0  0  0  0
 MicOpt= -1 -1 -1 -1 -1 -1 -1 -1 -1 -1 -1 -1
 NAtoms=     12 NQM=       12 NQMF=       0 NMMI=      0 NMMIF=      0
                NMic=       0 NMicF=      0.
                    Isotopes and Nuclear Properties:
 (Nuclear quadrupole moments (NQMom) in fm**2, nuclear magnetic moments (NMagM)
  in nuclear magnetons)

  Atom         1           2           3           4           5           6           7           8           9          10
 IAtWgt=          48          48          16          16          16          16          16          48          16           1
 AtmWgt=  47.9479467  47.9479467  15.9949146  15.9949146  15.9949146  15.9949146  15.9949146  47.9479467  15.9949146   1.0078250
 NucSpn=           0           0           0           0           0           0           0           0           0           1
 AtZEff=  -0.0000000  -0.0000000  -0.0000000  -0.0000000  -0.0000000  -0.0000000  -0.0000000  -0.0000000  -0.0000000  -0.0000000
 NQMom=    0.0000000   0.0000000   0.0000000   0.0000000   0.0000000   0.0000000   0.0000000   0.0000000   0.0000000   0.0000000
 NMagM=    0.0000000   0.0000000   0.0000000   0.0000000   0.0000000   0.0000000   0.0000000   0.0000000   0.0000000   2.7928460
 AtZNuc=  22.0000000  22.0000000   8.0000000   8.0000000   8.0000000   8.0000000   8.0000000  22.0000000   8.0000000   1.0000000

  Atom        11          12
 IAtWgt=          16           1
 AtmWgt=  15.9949146   1.0078250
 NucSpn=           0           1
 AtZEff=  -0.0000000  -0.0000000
 NQMom=    0.0000000   0.0000000
 NMagM=    0.0000000   2.7928460
 AtZNuc=   8.0000000   1.0000000
 Leave Link  101 at Mon Jun  7 16:38:09 2021, MaxMem=   536870912 cpu:               5.6 elap:               0.8
 (Enter /home/rheinheimer/Apps//g16/l103.exe)

 GradGradGradGradGradGradGradGradGradGradGradGradGradGradGradGradGradGrad
 Berny optimization.
 Initialization pass.
                           ----------------------------
                           !    Initial Parameters    !
                           ! (Angstroms and Degrees)  !
 --------------------------                            --------------------------
 ! Name  Definition              Value          Derivative Info.                !
 --------------------------------------------------------------------------------
 ! R1    R(1,2)                  2.7285         estimate D2E/DX2                !
 ! R2    R(1,3)                  2.0001         estimate D2E/DX2                !
 ! R3    R(1,4)                  1.9997         estimate D2E/DX2                !
 ! R4    R(1,5)                  1.7974         estimate D2E/DX2                !
 ! R5    R(1,6)                  1.7974         estimate D2E/DX2                !
 ! R6    R(1,8)                  2.7501         estimate D2E/DX2                !
 ! R7    R(2,3)                  1.8302         estimate D2E/DX2                !
 ! R8    R(2,4)                  1.8284         estimate D2E/DX2                !
 ! R9    R(2,7)                  1.6604         estimate D2E/DX2                !
 ! R10   R(5,8)                  2.0359         estimate D2E/DX2                !
 ! R11   R(6,8)                  2.0365         estimate D2E/DX2                !
 ! R12   R(8,9)                  1.7565         estimate D2E/DX2                !
 ! R13   R(8,11)                 1.7568         estimate D2E/DX2                !
 ! R14   R(9,10)                 0.9624         estimate D2E/DX2                !
 ! R15   R(11,12)                0.9625         estimate D2E/DX2                !
 ! A1    A(2,1,5)              132.1972         estimate D2E/DX2                !
 ! A2    A(2,1,6)              132.2999         estimate D2E/DX2                !
 ! A3    A(3,1,4)               84.1914         estimate D2E/DX2                !
 ! A4    A(3,1,5)              119.9526         estimate D2E/DX2                !
 ! A5    A(3,1,6)              120.7576         estimate D2E/DX2                !
 ! A6    A(3,1,8)              138.7143         estimate D2E/DX2                !
 ! A7    A(4,1,5)              119.8197         estimate D2E/DX2                !
 ! A8    A(4,1,6)              119.1862         estimate D2E/DX2                !
 ! A9    A(4,1,8)              137.0942         estimate D2E/DX2                !
 ! A10   A(5,1,6)               95.4915         estimate D2E/DX2                !
 ! A11   A(3,2,4)               94.2584         estimate D2E/DX2                !
 ! A12   A(3,2,7)              132.8977         estimate D2E/DX2                !
 ! A13   A(4,2,7)              132.8044         estimate D2E/DX2                !
 ! A14   A(1,8,9)              121.0049         estimate D2E/DX2                !
 ! A15   A(1,8,11)             121.5322         estimate D2E/DX2                !
 ! A16   A(5,8,6)               81.5915         estimate D2E/DX2                !
 ! A17   A(5,8,9)              113.0961         estimate D2E/DX2                !
 ! A18   A(5,8,11)             112.9312         estimate D2E/DX2                !
 ! A19   A(6,8,9)              112.818          estimate D2E/DX2                !
 ! A20   A(6,8,11)             113.7066         estimate D2E/DX2                !
 ! A21   A(9,8,11)             117.4617         estimate D2E/DX2                !
 ! A22   L(2,1,8,5,-1)         179.9332         estimate D2E/DX2                !
 ! A23   L(1,2,7,4,-1)         179.9259         estimate D2E/DX2                !
 ! A24   L(8,9,10,3,-1)        181.0845         estimate D2E/DX2                !
 ! A25   L(8,11,12,4,-1)       181.4941         estimate D2E/DX2                !
 ! A26   L(2,1,8,5,-2)         178.8705         estimate D2E/DX2                !
 ! A27   L(1,2,7,4,-2)         177.8929         estimate D2E/DX2                !
 ! A28   L(8,9,10,3,-2)        179.9553         estimate D2E/DX2                !
 ! A29   L(8,11,12,4,-2)       180.2618         estimate D2E/DX2                !
 ! D1    D(3,1,8,9)             -0.9507         estimate D2E/DX2                !
 ! D2    D(3,1,8,11)           178.638          estimate D2E/DX2                !
 ! D3    D(4,1,8,9)            179.2352         estimate D2E/DX2                !
 ! D4    D(4,1,8,11)            -1.1762         estimate D2E/DX2                !
 ! D5    D(1,2,3,4)             -0.0221         estimate D2E/DX2                !
 ! D6    D(1,2,3,7)           -177.8896         estimate D2E/DX2                !
 ! D7    D(1,2,4,7)            177.8929         estimate D2E/DX2                !
 --------------------------------------------------------------------------------
 Trust Radius=3.00D-01 FncErr=1.00D-07 GrdErr=1.00D-06 EigMax=2.50D+02 EigMin=1.00D-04
 Number of steps in this run=     61 maximum allowed number of steps=    100.
 GradGradGradGradGradGradGradGradGradGradGradGradGradGradGradGradGradGrad

 Leave Link  103 at Mon Jun  7 16:38:09 2021, MaxMem=   536870912 cpu:               0.5 elap:               0.1
 (Enter /home/rheinheimer/Apps//g16/l202.exe)
                          Input orientation:                          
 ---------------------------------------------------------------------
 Center     Atomic      Atomic             Coordinates (Angstroms)
 Number     Number       Type             X           Y           Z
 ---------------------------------------------------------------------
      1         22           0        1.012460    1.273000   -0.001470
      2         22           0        3.739730    1.212050   -0.057360
      3          8           0        2.462340   -0.092070   -0.188360
      4          8           0        2.529130    2.570040    0.125130
      5          8           0       -0.170580    1.146900    1.345790
      6          8           0       -0.219420    1.488180   -1.292530
      7          8           0        5.399580    1.171280   -0.046700
      8         22           0       -1.735030    1.373870    0.062900
      9          8           0       -2.698360   -0.084250   -0.113780
     10          1           0       -3.241280   -0.873190   -0.208440
     11          8           0       -2.593660    2.889340    0.291840
     12          1           0       -3.085730    3.706630    0.419660
 ---------------------------------------------------------------------
                    Distance matrix (angstroms):
                    1          2          3          4          5
     1  Ti   0.000000
     2  Ti   2.728523   0.000000
     3  O    2.000124   1.830195   0.000000
     4  O    1.999657   1.828385   2.681337   0.000000
     5  O    1.797385   4.154949   3.289518   3.286909   0.000000
     6  O    1.797406   4.156532   3.302759   3.276386   2.660750
     7  O    4.388532   1.660385   3.200547   3.197740   5.741629
     8  Ti   2.750094   5.478471   4.453092   4.429194   2.035885
     9  O    3.952838   6.567540   5.161245   5.867622   3.167925
    10  H    4.768991   7.287356   5.756894   6.727907   3.990688
    11  O    3.962662   6.561027   5.889188   5.135438   3.165158
    12  H    4.784879   7.282677   6.751362   5.736309   3.988488
                    6          7          8          9         10
     6  O    0.000000
     7  O    5.764172   0.000000
     8  Ti   2.036500   7.138327   0.000000
     9  O    3.163405   8.194967   1.756512   0.000000
    10  H    3.985343   8.880905   2.718767   0.962366   0.000000
    11  O    3.179700   8.182801   1.756789   3.002953   3.850497
    12  H    4.008597   8.868257   2.719088   3.847777   4.625306
                   11         12
    11  O    0.000000
    12  H    0.962514   0.000000
 Stoichiometry    H2O7Ti3
 Framework group  C1[X(H2O7Ti3)]
 Deg. of freedom    30
 Full point group                 C1      NOp   1
 Largest Abelian subgroup         C1      NOp   1
 Largest concise Abelian subgroup C1      NOp   1
                         Standard orientation:                         
 ---------------------------------------------------------------------
 Center     Atomic      Atomic             Coordinates (Angstroms)
 Number     Number       Type             X           Y           Z
 ---------------------------------------------------------------------
      1         22           0       -0.225086   -0.015055    0.005276
      2         22           0       -2.953537    0.004632    0.008480
      3          8           0       -1.718279   -1.345713   -0.009564
      4          8           0       -1.699768    1.335364    0.022877
      5          8           0        0.980734   -0.004401   -1.327571
      6          8           0        0.986236   -0.007476    1.333172
      7          8           0       -4.613309    0.018724   -0.034339
      8         22           0        2.524927    0.005270   -0.000844
      9          8           0        3.440836   -1.493542    0.001378
     10          1           0        3.958104   -2.305074    0.002005
     11          8           0        3.432561    1.509338   -0.017851
     12          1           0        3.951128    2.320110   -0.030867
 ---------------------------------------------------------------------
 Rotational constants (GHZ):           2.5645482           0.3050408           0.2903632
 Leave Link  202 at Mon Jun  7 16:38:09 2021, MaxMem=   536870912 cpu:               1.2 elap:               0.2
 (Enter /home/rheinheimer/Apps//g16/l301.exe)
 Standard basis: LANL2DZ (5D, 7F)
 Ernie: Thresh=  0.10000D-02 Tol=  0.10000D-05 Strict=F.
 Ernie:  3 primitive shells out of 167 were deleted.
 AO basis set in the form of general basis input (Overlap normalization):
      1 0
 S   3 1.00       0.000000000000
      0.1098000000D+01 -0.1023676994D+00
      0.4178000000D+00 -0.3753172148D+00
      0.8720000000D-01  0.1215423149D+01
 S   3 1.00       0.000000000000
      0.4372000000D+01 -0.3637098367D+00
      0.1098000000D+01  0.8184533826D+00
      0.4178000000D+00  0.4184526423D+00
 S   1 1.00       0.000000000000
      0.3140000000D-01  0.1000000000D+01
 P   3 1.00       0.000000000000
      0.1252000000D+02 -0.4569080054D-01
      0.1491000000D+01  0.6203313074D+00
      0.4859000000D+00  0.4765329057D+00
 P   1 1.00       0.000000000000
      0.5300000000D-01  0.1000000000D+01
 P   1 1.00       0.000000000000
      0.1600000000D-01  0.1000000000D+01
 D   4 1.00       0.000000000000
      0.2021000000D+02  0.3416819898D-01
      0.5495000000D+01  0.1710005949D+00
      0.1699000000D+01  0.4405848869D+00
      0.4840000000D+00  0.6114245818D+00
 D   1 1.00       0.000000000000
      0.1157000000D+00  0.1000000000D+01
 ****
      2 0
 S   3 1.00       0.000000000000
      0.1098000000D+01 -0.1023676994D+00
      0.4178000000D+00 -0.3753172148D+00
      0.8720000000D-01  0.1215423149D+01
 S   3 1.00       0.000000000000
      0.4372000000D+01 -0.3637098367D+00
      0.1098000000D+01  0.8184533826D+00
      0.4178000000D+00  0.4184526423D+00
 S   1 1.00       0.000000000000
      0.3140000000D-01  0.1000000000D+01
 P   3 1.00       0.000000000000
      0.1252000000D+02 -0.4569080054D-01
      0.1491000000D+01  0.6203313074D+00
      0.4859000000D+00  0.4765329057D+00
 P   1 1.00       0.000000000000
      0.5300000000D-01  0.1000000000D+01
 P   1 1.00       0.000000000000
      0.1600000000D-01  0.1000000000D+01
 D   4 1.00       0.000000000000
      0.2021000000D+02  0.3416819898D-01
      0.5495000000D+01  0.1710005949D+00
      0.1699000000D+01  0.4405848869D+00
      0.4840000000D+00  0.6114245818D+00
 D   1 1.00       0.000000000000
      0.1157000000D+00  0.1000000000D+01
 ****
      3 0
 S   7 1.00       0.000000000000
      0.7817000000D+04  0.1176000331D-02
      0.1176000000D+04  0.8968002523D-02
      0.2732000000D+03  0.4286801206D-01
      0.8117000000D+02  0.1439300405D+00
      0.2718000000D+02  0.3556301000D+00
      0.9532000000D+01  0.4612481297D+00
      0.3414000000D+01  0.1402060394D+00
 S   2 1.00       0.000000000000
      0.9532000000D+01 -0.1541530739D+00
      0.9398000000D+00  0.1056914507D+01
 S   1 1.00       0.000000000000
      0.2846000000D+00  0.1000000000D+01
 P   4 1.00       0.000000000000
      0.3518000000D+02  0.1958000050D-01
      0.7904000000D+01  0.1242000032D+00
      0.2305000000D+01  0.3947140101D+00
      0.7171000000D+00  0.6273760161D+00
 P   1 1.00       0.000000000000
      0.2137000000D+00  0.1000000000D+01
 ****
      4 0
 S   7 1.00       0.000000000000
      0.7817000000D+04  0.1176000331D-02
      0.1176000000D+04  0.8968002523D-02
      0.2732000000D+03  0.4286801206D-01
      0.8117000000D+02  0.1439300405D+00
      0.2718000000D+02  0.3556301000D+00
      0.9532000000D+01  0.4612481297D+00
      0.3414000000D+01  0.1402060394D+00
 S   2 1.00       0.000000000000
      0.9532000000D+01 -0.1541530739D+00
      0.9398000000D+00  0.1056914507D+01
 S   1 1.00       0.000000000000
      0.2846000000D+00  0.1000000000D+01
 P   4 1.00       0.000000000000
      0.3518000000D+02  0.1958000050D-01
      0.7904000000D+01  0.1242000032D+00
      0.2305000000D+01  0.3947140101D+00
      0.7171000000D+00  0.6273760161D+00
 P   1 1.00       0.000000000000
      0.2137000000D+00  0.1000000000D+01
 ****
      5 0
 S   7 1.00       0.000000000000
      0.7817000000D+04  0.1176000331D-02
      0.1176000000D+04  0.8968002523D-02
      0.2732000000D+03  0.4286801206D-01
      0.8117000000D+02  0.1439300405D+00
      0.2718000000D+02  0.3556301000D+00
      0.9532000000D+01  0.4612481297D+00
      0.3414000000D+01  0.1402060394D+00
 S   2 1.00       0.000000000000
      0.9532000000D+01 -0.1541530739D+00
      0.9398000000D+00  0.1056914507D+01
 S   1 1.00       0.000000000000
      0.2846000000D+00  0.1000000000D+01
 P   4 1.00       0.000000000000
      0.3518000000D+02  0.1958000050D-01
      0.7904000000D+01  0.1242000032D+00
      0.2305000000D+01  0.3947140101D+00
      0.7171000000D+00  0.6273760161D+00
 P   1 1.00       0.000000000000
      0.2137000000D+00  0.1000000000D+01
 ****
      6 0
 S   7 1.00       0.000000000000
      0.7817000000D+04  0.1176000331D-02
      0.1176000000D+04  0.8968002523D-02
      0.2732000000D+03  0.4286801206D-01
      0.8117000000D+02  0.1439300405D+00
      0.2718000000D+02  0.3556301000D+00
      0.9532000000D+01  0.4612481297D+00
      0.3414000000D+01  0.1402060394D+00
 S   2 1.00       0.000000000000
      0.9532000000D+01 -0.1541530739D+00
      0.9398000000D+00  0.1056914507D+01
 S   1 1.00       0.000000000000
      0.2846000000D+00  0.1000000000D+01
 P   4 1.00       0.000000000000
      0.3518000000D+02  0.1958000050D-01
      0.7904000000D+01  0.1242000032D+00
      0.2305000000D+01  0.3947140101D+00
      0.7171000000D+00  0.6273760161D+00
 P   1 1.00       0.000000000000
      0.2137000000D+00  0.1000000000D+01
 ****
      7 0
 S   7 1.00       0.000000000000
      0.7817000000D+04  0.1176000331D-02
      0.1176000000D+04  0.8968002523D-02
      0.2732000000D+03  0.4286801206D-01
      0.8117000000D+02  0.1439300405D+00
      0.2718000000D+02  0.3556301000D+00
      0.9532000000D+01  0.4612481297D+00
      0.3414000000D+01  0.1402060394D+00
 S   2 1.00       0.000000000000
      0.9532000000D+01 -0.1541530739D+00
      0.9398000000D+00  0.1056914507D+01
 S   1 1.00       0.000000000000
      0.2846000000D+00  0.1000000000D+01
 P   4 1.00       0.000000000000
      0.3518000000D+02  0.1958000050D-01
      0.7904000000D+01  0.1242000032D+00
      0.2305000000D+01  0.3947140101D+00
      0.7171000000D+00  0.6273760161D+00
 P   1 1.00       0.000000000000
      0.2137000000D+00  0.1000000000D+01
 ****
      8 0
 S   3 1.00       0.000000000000
      0.1098000000D+01 -0.1023676994D+00
      0.4178000000D+00 -0.3753172148D+00
      0.8720000000D-01  0.1215423149D+01
 S   3 1.00       0.000000000000
      0.4372000000D+01 -0.3637098367D+00
      0.1098000000D+01  0.8184533826D+00
      0.4178000000D+00  0.4184526423D+00
 S   1 1.00       0.000000000000
      0.3140000000D-01  0.1000000000D+01
 P   3 1.00       0.000000000000
      0.1252000000D+02 -0.4569080054D-01
      0.1491000000D+01  0.6203313074D+00
      0.4859000000D+00  0.4765329057D+00
 P   1 1.00       0.000000000000
      0.5300000000D-01  0.1000000000D+01
 P   1 1.00       0.000000000000
      0.1600000000D-01  0.1000000000D+01
 D   4 1.00       0.000000000000
      0.2021000000D+02  0.3416819898D-01
      0.5495000000D+01  0.1710005949D+00
      0.1699000000D+01  0.4405848869D+00
      0.4840000000D+00  0.6114245818D+00
 D   1 1.00       0.000000000000
      0.1157000000D+00  0.1000000000D+01
 ****
      9 0
 S   7 1.00       0.000000000000
      0.7817000000D+04  0.1176000331D-02
      0.1176000000D+04  0.8968002523D-02
      0.2732000000D+03  0.4286801206D-01
      0.8117000000D+02  0.1439300405D+00
      0.2718000000D+02  0.3556301000D+00
      0.9532000000D+01  0.4612481297D+00
      0.3414000000D+01  0.1402060394D+00
 S   2 1.00       0.000000000000
      0.9532000000D+01 -0.1541530739D+00
      0.9398000000D+00  0.1056914507D+01
 S   1 1.00       0.000000000000
      0.2846000000D+00  0.1000000000D+01
 P   4 1.00       0.000000000000
      0.3518000000D+02  0.1958000050D-01
      0.7904000000D+01  0.1242000032D+00
      0.2305000000D+01  0.3947140101D+00
      0.7171000000D+00  0.6273760161D+00
 P   1 1.00       0.000000000000
      0.2137000000D+00  0.1000000000D+01
 ****
     10 0
 S   3 1.00       0.000000000000
      0.1924060000D+02  0.3282807697D-01
      0.2899200000D+01  0.2312085421D+00
      0.6534000000D+00  0.8172399161D+00
 S   1 1.00       0.000000000000
      0.1776000000D+00  0.1000000000D+01
 ****
     11 0
 S   7 1.00       0.000000000000
      0.7817000000D+04  0.1176000331D-02
      0.1176000000D+04  0.8968002523D-02
      0.2732000000D+03  0.4286801206D-01
      0.8117000000D+02  0.1439300405D+00
      0.2718000000D+02  0.3556301000D+00
      0.9532000000D+01  0.4612481297D+00
      0.3414000000D+01  0.1402060394D+00
 S   2 1.00       0.000000000000
      0.9532000000D+01 -0.1541530739D+00
      0.9398000000D+00  0.1056914507D+01
 S   1 1.00       0.000000000000
      0.2846000000D+00  0.1000000000D+01
 P   4 1.00       0.000000000000
      0.3518000000D+02  0.1958000050D-01
      0.7904000000D+01  0.1242000032D+00
      0.2305000000D+01  0.3947140101D+00
      0.7171000000D+00  0.6273760161D+00
 P   1 1.00       0.000000000000
      0.2137000000D+00  0.1000000000D+01
 ****
     12 0
 S   3 1.00       0.000000000000
      0.1924060000D+02  0.3282807697D-01
      0.2899200000D+01  0.2312085421D+00
      0.6534000000D+00  0.8172399161D+00
 S   1 1.00       0.000000000000
      0.1776000000D+00  0.1000000000D+01
 ****

 Effective core potential in the form of general ECP input:
      1 0
 Ti1-ECP   2 10
 D component
  3
  1      265.3263909      -10.00000000    0.00000000
  2       47.7687815      -51.84278160    0.00000000
  2       11.8903334       -9.14291450    0.00000000
 S-D projection
  5
  0       81.4730696        3.00000000    0.00000000
  1       72.6496724       19.48255790    0.00000000
  2       31.8128213      207.33492790    0.00000000
  2        6.1664468      235.67445010    0.00000000
  2        5.8268347     -166.87843870    0.00000000
 P-D projection
  5
  0       50.2966943        5.00000000    0.00000000
  1       63.5089754        5.53488220    0.00000000
  2       26.0996084      177.84193840    0.00000000
  2        5.6022573      107.42071530    0.00000000
  2        5.2171069      -71.90659020    0.00000000
      2 0
 Ti2-ECP   2 10
 D component
  3
  1      265.3263909      -10.00000000    0.00000000
  2       47.7687815      -51.84278160    0.00000000
  2       11.8903334       -9.14291450    0.00000000
 S-D projection
  5
  0       81.4730696        3.00000000    0.00000000
  1       72.6496724       19.48255790    0.00000000
  2       31.8128213      207.33492790    0.00000000
  2        6.1664468      235.67445010    0.00000000
  2        5.8268347     -166.87843870    0.00000000
 P-D projection
  5
  0       50.2966943        5.00000000    0.00000000
  1       63.5089754        5.53488220    0.00000000
  2       26.0996084      177.84193840    0.00000000
  2        5.6022573      107.42071530    0.00000000
  2        5.2171069      -71.90659020    0.00000000
      8 0
 Ti8-ECP   2 10
 D component
  3
  1      265.3263909      -10.00000000    0.00000000
  2       47.7687815      -51.84278160    0.00000000
  2       11.8903334       -9.14291450    0.00000000
 S-D projection
  5
  0       81.4730696        3.00000000    0.00000000
  1       72.6496724       19.48255790    0.00000000
  2       31.8128213      207.33492790    0.00000000
  2        6.1664468      235.67445010    0.00000000
  2        5.8268347     -166.87843870    0.00000000
 P-D projection
  5
  0       50.2966943        5.00000000    0.00000000
  1       63.5089754        5.53488220    0.00000000
  2       26.0996084      177.84193840    0.00000000
  2        5.6022573      107.42071530    0.00000000
  2        5.2171069      -71.90659020    0.00000000
 
 There are   139 symmetry adapted cartesian basis functions of A   symmetry.
 There are   133 symmetry adapted basis functions of A   symmetry.
   133 basis functions,   339 primitive gaussians,   139 cartesian basis functions
    47 alpha electrons       47 beta electrons
       nuclear repulsion energy       692.5013509839 Hartrees.
 IExCor=  402 DFT=T Ex+Corr=B3LYP ExCW=0 ScaHFX=  0.200000
 ScaDFX=  0.800000  0.720000  1.000000  0.810000 ScalE2=  1.000000  1.000000
 IRadAn=      5 IRanWt=     -1 IRanGd=            0 ICorTp=0 IEmpDi=  4
 NAtoms=   12 NActive=   12 NUniq=   12 SFac= 1.00D+00 NAtFMM=   60 NAOKFM=F Big=F
 Integral buffers will be    131072 words long.
 Raffenetti 2 integral format.
 Two-electron integral symmetry is turned on.
 ------------------------------------------------------------------------------
 Polarizable Continuum Model (PCM)
 =================================
 Model                : PCM.
 Atomic radii         : UFF (Universal Force Field).
 Polarization charges : Total charges.
 Charge compensation  : None.
 Solution method      : On-the-fly selection.
 Cavity type          : Scaled VdW (van der Waals Surface) (Alpha=1.100).
 Cavity algorithm     : GePol (No added spheres)
                        Default sphere list used, NSphG=   12.
                        Lebedev-Laikov grids with approx.  5.0 points / Ang**2.
                        Smoothing algorithm: York/Karplus (Gamma=1.0000).
                        Polarization charges: spherical gaussians, with
                                              point-specific exponents (IZeta= 3).
                        Self-potential: point-specific (ISelfS= 7).
                        Self-field    : sphere-specific E.n sum rule (ISelfD= 2).
 1st derivatives      : Analytical E(r).r(x)/FMM algorithm (CHGder, D1EAlg=3).
                        Cavity 1st derivative terms included.
 Solvent              : Water, Eps=  78.355300 Eps(inf)=   1.777849
 ------------------------------------------------------------------------------
 Spheres list:
 ISph  on   Nord     Re0    Alpha      Xe            Ye            Ze
    1  Ti      1    1.5875  1.100     -0.225086     -0.015055      0.005276
    2  Ti      2    1.5875  1.100     -2.953537      0.004632      0.008480
    3   O      3    1.7500  1.100     -1.718279     -1.345713     -0.009564
    4   O      4    1.7500  1.100     -1.699768      1.335364      0.022877
    5   O      5    1.7500  1.100      0.980734     -0.004401     -1.327571
    6   O      6    1.7500  1.100      0.986236     -0.007476      1.333172
    7   O      7    1.7500  1.100     -4.613309      0.018724     -0.034339
    8  Ti      8    1.5875  1.100      2.524927      0.005270     -0.000844
    9   O      9    1.7500  1.100      3.440836     -1.493542      0.001378
   10   H     10    1.4430  1.100      3.958104     -2.305074      0.002005
   11   O     11    1.7500  1.100      3.432561      1.509338     -0.017851
   12   H     12    1.4430  1.100      3.951128      2.320110     -0.030867
 ------------------------------------------------------------------------------
 GePol: Number of generator spheres                  =      12
 GePol: Total number of spheres                      =      12
 GePol: Number of exposed spheres                    =      12 (100.00%)
 GePol: Number of points                             =    1651
 GePol: Average weight of points                     =       0.14
 GePol: Minimum weight of points                     =   0.22D-08
 GePol: Maximum weight of points                     =    0.21234
 GePol: Number of points with low weight             =      53
 GePol: Fraction of low-weight points (<1% of avg)   =       3.21%
 GePol: Cavity surface area                          =    227.163 Ang**2
 GePol: Cavity volume                                =    198.203 Ang**3
 Leave Link  301 at Mon Jun  7 16:38:09 2021, MaxMem=   536870912 cpu:               1.1 elap:               0.2
 (Enter /home/rheinheimer/Apps//g16/l302.exe)
 NPDir=0 NMtPBC=     1 NCelOv=     1 NCel=       1 NClECP=     1 NCelD=      1
         NCelK=      1 NCelE2=     1 NClLst=     1 CellRange=     0.0.
 One-electron integrals computed using PRISM.
 One-electron integral symmetry used in STVInt
   1 Symmetry operations used in ECPInt.
 ECPInt:  NShTT=    2016 NPrTT=   13777 LenC2=    1929 LenP2D=    9015.
 LDataN:  DoStor=T MaxTD1= 4 Len=   56
 NBasis=   133 RedAO= T EigKep=  1.19D-03  NBF=   133
 NBsUse=   133 1.00D-06 EigRej= -1.00D+00 NBFU=   133
 Precomputing XC quadrature grid using
 IXCGrd= 4 IRadAn=           5 IRanWt=          -1 IRanGd=           0 AccXCQ= 0.00D+00.
 Generated NRdTot=       0 NPtTot=           0 NUsed=           0 NTot=          32
 NSgBfM=   139   139   139   139   139 MxSgAt=    12 MxSgA2=    12.
 Leave Link  302 at Mon Jun  7 16:38:11 2021, MaxMem=   536870912 cpu:               8.8 elap:               1.2
 (Enter /home/rheinheimer/Apps//g16/l303.exe)
 DipDrv:  MaxL=1.
 Leave Link  303 at Mon Jun  7 16:38:11 2021, MaxMem=   536870912 cpu:               2.5 elap:               0.4
 (Enter /home/rheinheimer/Apps//g16/l401.exe)
 ExpMin= 1.60D-02 ExpMax= 7.82D+03 ExpMxC= 2.73D+02 IAcc=3 IRadAn=         5 AccDes= 0.00D+00
 Harris functional with IExCor=  402 and IRadAn=       5 diagonalized for initial guess.
 HarFok:  IExCor=  402 AccDes= 0.00D+00 IRadAn=         5 IDoV= 1 UseB2=F ITyADJ=14
 ICtDFT=  3500011 ScaDFX=  1.000000  1.000000  1.000000  1.000000
 FoFCou: FMM=F IPFlag=           0 FMFlag=      100000 FMFlg1=           0
         NFxFlg=           0 DoJE=T BraDBF=F KetDBF=T FulRan=T
         wScrn=  0.000000 ICntrl=       500 IOpCl=  0 I1Cent=   200000004 NGrid=           0
         NMat0=    1 NMatS0=      1 NMatT0=    0 NMatD0=    1 NMtDS0=    0 NMtDT0=    0
 Petite list used in FoFCou.
 Harris En= -703.113875402714    
 JPrj=0 DoOrth=F DoCkMO=F.
 Leave Link  401 at Mon Jun  7 16:38:13 2021, MaxMem=   536870912 cpu:              12.3 elap:               1.8
 (Enter /home/rheinheimer/Apps//g16/l502.exe)
 Keep R1 ints in memory in canonical form, NReq=47412208.
 FoFCou: FMM=F IPFlag=           0 FMFlag=           0 FMFlg1=           0
         NFxFlg=           0 DoJE=F BraDBF=F KetDBF=F FulRan=T
         wScrn=  0.000000 ICntrl=       600 IOpCl=  0 I1Cent=           0 NGrid=           0
         NMat0=    1 NMatS0=   8911 NMatT0=    0 NMatD0=    1 NMtDS0=    0 NMtDT0=    0
 Symmetry not used in FoFCou.
 Two-electron integral symmetry not used.
 Closed shell SCF:
 Using DIIS extrapolation, IDIIS=  1040.
 NGot=   536870912 LenX=   497122120 LenY=   497102358
 Requested convergence on RMS density matrix=1.00D-08 within 128 cycles.
 Requested convergence on MAX density matrix=1.00D-06.
 Requested convergence on             energy=1.00D-06.
 No special actions if energy rises.

 Cycle   1  Pass 1  IDiag  1:
 Inv3:  Mode=1 IEnd=     8177403.
 Iteration    1 A*A^-1 deviation from unit magnitude is 3.11D-15 for    948.
 Iteration    1 A*A^-1 deviation from orthogonality  is 2.35D-15 for    974     37.
 Iteration    1 A^-1*A deviation from unit magnitude is 3.11D-15 for    948.
 Iteration    1 A^-1*A deviation from orthogonality  is 3.88D-14 for   1066   1013.
 E= -700.668637293518    
 DIIS: error= 9.58D-02 at cycle   1 NSaved=   1.
 NSaved= 1 IEnMin= 1 EnMin= -700.668637293518     IErMin= 1 ErrMin= 9.58D-02
 ErrMax= 9.58D-02  0.00D+00 EMaxC= 1.00D-01 BMatC= 2.10D+00 BMatP= 2.10D+00
 IDIUse=3 WtCom= 4.21D-02 WtEn= 9.58D-01
 Coeff-Com:  0.100D+01
 Coeff-En:   0.100D+01
 Coeff:      0.100D+01
 Gap=    -0.302 Goal=   None    Shift=    0.000
 GapD=   -0.302 DampG=0.250 DampE=0.250 DampFc=0.1250 IDamp=-1.
 Damping current iteration by 1.25D-01
 RMSDP=3.56D-02 MaxDP=9.67D-01              OVMax= 9.24D-01

 Cycle   2  Pass 1  IDiag  1:
 E= -701.238446735935     Delta-E=       -0.569809442417 Rises=F Damp=T
 DIIS: error= 4.31D-02 at cycle   2 NSaved=   2.
 NSaved= 2 IEnMin= 2 EnMin= -701.238446735935     IErMin= 2 ErrMin= 4.31D-02
 ErrMax= 4.31D-02  0.00D+00 EMaxC= 1.00D-01 BMatC= 4.24D-01 BMatP= 2.10D+00
 IDIUse=3 WtCom= 5.69D-01 WtEn= 4.31D-01
 Coeff-Com: -0.632D+00 0.163D+01
 Coeff-En:   0.176D+00 0.824D+00
 Coeff:     -0.284D+00 0.128D+01
 Gap=     0.055 Goal=   None    Shift=    0.000
 RMSDP=9.44D-03 MaxDP=1.61D-01 DE=-5.70D-01 OVMax= 9.25D-01

 Cycle   3  Pass 1  IDiag  1:
 E= -702.242072719381     Delta-E=       -1.003625983446 Rises=F Damp=F
 DIIS: error= 5.34D-02 at cycle   3 NSaved=   3.
 NSaved= 3 IEnMin= 3 EnMin= -702.242072719381     IErMin= 2 ErrMin= 4.31D-02
 ErrMax= 5.34D-02  0.00D+00 EMaxC= 1.00D-01 BMatC= 3.94D-01 BMatP= 4.24D-01
 IDIUse=3 WtCom= 4.66D-01 WtEn= 5.34D-01
 Coeff-Com: -0.352D+00 0.989D+00 0.363D+00
 Coeff-En:   0.567D-01 0.000D+00 0.943D+00
 Coeff:     -0.134D+00 0.461D+00 0.672D+00
 Gap=     0.304 Goal=   None    Shift=    0.000
 RMSDP=7.84D-03 MaxDP=1.47D-01 DE=-1.00D+00 OVMax= 1.38D-01

 Cycle   4  Pass 1  IDiag  1:
 E= -702.561686594557     Delta-E=       -0.319613875176 Rises=F Damp=F
 DIIS: error= 2.91D-02 at cycle   4 NSaved=   4.
 NSaved= 4 IEnMin= 4 EnMin= -702.561686594557     IErMin= 4 ErrMin= 2.91D-02
 ErrMax= 2.91D-02  0.00D+00 EMaxC= 1.00D-01 BMatC= 1.19D-01 BMatP= 3.94D-01
 IDIUse=3 WtCom= 7.09D-01 WtEn= 2.91D-01
 Coeff-Com: -0.233D+00 0.641D+00 0.341D+00 0.251D+00
 Coeff-En:   0.000D+00 0.000D+00 0.152D+00 0.848D+00
 Coeff:     -0.165D+00 0.454D+00 0.286D+00 0.425D+00
 Gap=     0.198 Goal=   None    Shift=    0.000
 RMSDP=3.62D-03 MaxDP=8.34D-02 DE=-3.20D-01 OVMax= 1.01D-01

 Cycle   5  Pass 1  IDiag  1:
 E= -702.566641365399     Delta-E=       -0.004954770842 Rises=F Damp=F
 DIIS: error= 3.26D-02 at cycle   5 NSaved=   5.
 NSaved= 5 IEnMin= 5 EnMin= -702.566641365399     IErMin= 4 ErrMin= 2.91D-02
 ErrMax= 3.26D-02  0.00D+00 EMaxC= 1.00D-01 BMatC= 9.19D-02 BMatP= 1.19D-01
 IDIUse=3 WtCom= 6.74D-01 WtEn= 3.26D-01
 Coeff-Com: -0.180D+00 0.282D+00 0.117D+00 0.368D+00 0.413D+00
 Coeff-En:   0.000D+00 0.000D+00 0.000D+00 0.488D+00 0.512D+00
 Coeff:     -0.121D+00 0.190D+00 0.790D-01 0.407D+00 0.445D+00
 Gap=     0.154 Goal=   None    Shift=    0.000
 RMSDP=1.92D-03 MaxDP=6.38D-02 DE=-4.95D-03 OVMax= 7.64D-02

 Cycle   6  Pass 1  IDiag  1:
 E= -702.653710690512     Delta-E=       -0.087069325113 Rises=F Damp=F
 DIIS: error= 7.58D-03 at cycle   6 NSaved=   6.
 NSaved= 6 IEnMin= 6 EnMin= -702.653710690512     IErMin= 6 ErrMin= 7.58D-03
 ErrMax= 7.58D-03  0.00D+00 EMaxC= 1.00D-01 BMatC= 8.19D-03 BMatP= 9.19D-02
 IDIUse=3 WtCom= 9.24D-01 WtEn= 7.58D-02
 Coeff-Com: -0.891D-01 0.889D-01-0.166D-01 0.242D+00 0.360D+00 0.415D+00
 Coeff-En:   0.000D+00 0.000D+00 0.000D+00 0.000D+00 0.000D+00 0.100D+01
 Coeff:     -0.823D-01 0.821D-01-0.154D-01 0.223D+00 0.332D+00 0.460D+00
 Gap=     0.153 Goal=   None    Shift=    0.000
 RMSDP=7.81D-04 MaxDP=2.16D-02 DE=-8.71D-02 OVMax= 2.29D-02

 Cycle   7  Pass 1  IDiag  1:
 E= -702.656114524423     Delta-E=       -0.002403833911 Rises=F Damp=F
 DIIS: error= 6.42D-03 at cycle   7 NSaved=   7.
 NSaved= 7 IEnMin= 7 EnMin= -702.656114524423     IErMin= 7 ErrMin= 6.42D-03
 ErrMax= 6.42D-03  0.00D+00 EMaxC= 1.00D-01 BMatC= 5.18D-03 BMatP= 8.19D-03
 IDIUse=3 WtCom= 9.36D-01 WtEn= 6.42D-02
 Coeff-Com: -0.609D-01 0.759D-01-0.433D-01 0.244D-02 0.506D-01 0.324D+00
 Coeff-Com:  0.651D+00
 Coeff-En:   0.000D+00 0.000D+00 0.000D+00 0.000D+00 0.000D+00 0.408D+00
 Coeff-En:   0.592D+00
 Coeff:     -0.570D-01 0.710D-01-0.405D-01 0.229D-02 0.473D-01 0.330D+00
 Coeff:      0.647D+00
 Gap=     0.146 Goal=   None    Shift=    0.000
 RMSDP=2.23D-04 MaxDP=5.97D-03 DE=-2.40D-03 OVMax= 8.31D-03

 Cycle   8  Pass 1  IDiag  1:
 E= -702.658974087578     Delta-E=       -0.002859563154 Rises=F Damp=F
 DIIS: error= 4.59D-03 at cycle   8 NSaved=   8.
 NSaved= 8 IEnMin= 8 EnMin= -702.658974087578     IErMin= 8 ErrMin= 4.59D-03
 ErrMax= 4.59D-03  0.00D+00 EMaxC= 1.00D-01 BMatC= 2.32D-03 BMatP= 5.18D-03
 IDIUse=3 WtCom= 9.54D-01 WtEn= 4.59D-02
 Coeff-Com: -0.513D-01 0.732D-01-0.328D-01-0.487D-01-0.466D-01 0.184D+00
 Coeff-Com:  0.427D+00 0.495D+00
 Coeff-En:   0.000D+00 0.000D+00 0.000D+00 0.000D+00 0.000D+00 0.197D+00
 Coeff-En:   0.000D+00 0.803D+00
 Coeff:     -0.489D-01 0.699D-01-0.313D-01-0.464D-01-0.445D-01 0.185D+00
 Coeff:      0.407D+00 0.509D+00
 Gap=     0.148 Goal=   None    Shift=    0.000
 RMSDP=1.08D-04 MaxDP=2.66D-03 DE=-2.86D-03 OVMax= 4.00D-03

 Cycle   9  Pass 1  IDiag  1:
 E= -702.659094245613     Delta-E=       -0.000120158036 Rises=F Damp=F
 DIIS: error= 4.21D-03 at cycle   9 NSaved=   9.
 NSaved= 9 IEnMin= 9 EnMin= -702.659094245613     IErMin= 9 ErrMin= 4.21D-03
 ErrMax= 4.21D-03  0.00D+00 EMaxC= 1.00D-01 BMatC= 2.25D-03 BMatP= 2.32D-03
 IDIUse=3 WtCom= 9.58D-01 WtEn= 4.21D-02
 EnCoef did    10 forward-backward iterations
 Coeff-Com: -0.502D-01 0.772D-01-0.231D-01-0.611D-01-0.778D-01 0.826D-01
 Coeff-Com:  0.185D+00 0.416D+00 0.451D+00
 Coeff-En:   0.000D+00 0.000D+00 0.000D+00 0.000D+00 0.000D+00 0.179D+00
 Coeff-En:   0.000D+00 0.274D+00 0.548D+00
 Coeff:     -0.481D-01 0.739D-01-0.222D-01-0.585D-01-0.746D-01 0.866D-01
 Coeff:      0.177D+00 0.410D+00 0.455D+00
 Gap=     0.150 Goal=   None    Shift=    0.000
 RMSDP=4.83D-05 MaxDP=1.11D-03 DE=-1.20D-04 OVMax= 1.54D-03

 Cycle  10  Pass 1  IDiag  1:
 E= -702.658833909272     Delta-E=        0.000260336341 Rises=F Damp=F
 DIIS: error= 4.19D-03 at cycle  10 NSaved=  10.
 NSaved=10 IEnMin= 9 EnMin= -702.659094245613     IErMin=10 ErrMin= 4.19D-03
 ErrMax= 4.19D-03  0.00D+00 EMaxC= 1.00D-01 BMatC= 2.48D-03 BMatP= 2.25D-03
 IDIUse=3 WtCom= 9.58D-01 WtEn= 4.21D-02
 Rare condition: small coef for last iteration:  0.666D-15
 Coeff-Com: -0.508D-01 0.776D-01-0.150D-01-0.584D-01-0.882D-01-0.233D-01
 Coeff-Com: -0.145D+00 0.140D+00 0.561D+00 0.601D+00
 Coeff-En:   0.000D+00 0.000D+00 0.000D+00 0.000D+00 0.000D+00 0.200D+00
 Coeff-En:   0.000D+00 0.000D+00 0.000D+00 0.800D+00
 Coeff:     -0.508D-01 0.776D-01-0.150D-01-0.584D-01-0.882D-01-0.233D-01
 Coeff:     -0.145D+00 0.140D+00 0.561D+00 0.601D+00
 Gap=     0.151 Goal=   None    Shift=    0.000
 RMSDP=4.97D-05 MaxDP=1.13D-03 DE= 2.60D-04 OVMax= 1.38D-03

 Cycle  11  Pass 1  IDiag  1:
 E= -702.657881981947     Delta-E=        0.000951927325 Rises=F Damp=F
 DIIS: error= 4.93D-03 at cycle  11 NSaved=  11.
 NSaved=11 IEnMin= 9 EnMin= -702.659094245613     IErMin=10 ErrMin= 4.19D-03
 ErrMax= 4.93D-03  0.00D+00 EMaxC= 1.00D-01 BMatC= 3.40D-03 BMatP= 2.25D-03
 IDIUse=3 WtCom= 9.58D-01 WtEn= 4.21D-02
 EnCoef did   100 forward-backward iterations
 Rare condition: small coef for last iteration:  0.000D+00
 Coeff-Com:  0.571D-02-0.631D-02-0.115D-01-0.145D-01-0.116D-01 0.119D-01
 Coeff-Com: -0.129D+00 0.127D+00 0.772D+00 0.572D+01-0.546D+01
 Coeff-En:   0.000D+00 0.000D+00 0.000D+00 0.000D+00 0.000D+00 0.282D+00
 Coeff-En:   0.000D+00 0.000D+00 0.000D+00 0.000D+00 0.718D+00
 Coeff:      0.571D-02-0.631D-02-0.115D-01-0.145D-01-0.116D-01 0.119D-01
 Coeff:     -0.129D+00 0.127D+00 0.772D+00 0.572D+01-0.546D+01
 Gap=     0.141 Goal=   None    Shift=    0.000
 RMSDP=3.92D-04 MaxDP=1.02D-02 DE= 9.52D-04 OVMax= 1.12D-02

 Cycle  12  Pass 1  IDiag  1:
 E= -702.661436573165     Delta-E=       -0.003554591217 Rises=F Damp=F
 DIIS: error= 5.98D-04 at cycle  12 NSaved=  12.
 NSaved=12 IEnMin=12 EnMin= -702.661436573165     IErMin=12 ErrMin= 5.98D-04
 ErrMax= 5.98D-04  0.00D+00 EMaxC= 1.00D-01 BMatC= 3.93D-05 BMatP= 2.25D-03
 IDIUse=3 WtCom= 9.94D-01 WtEn= 5.98D-03
 Coeff-Com:  0.309D-02-0.307D-02-0.479D-02-0.570D-02-0.724D-02-0.142D-01
 Coeff-Com: -0.169D+00 0.125D-02 0.527D+00 0.373D+01-0.340D+01 0.338D+00
 Coeff-En:   0.000D+00 0.000D+00 0.000D+00 0.000D+00 0.000D+00 0.000D+00
 Coeff-En:   0.000D+00 0.000D+00 0.000D+00 0.000D+00 0.000D+00 0.100D+01
 Coeff:      0.307D-02-0.305D-02-0.476D-02-0.567D-02-0.720D-02-0.141D-01
 Coeff:     -0.168D+00 0.125D-02 0.524D+00 0.371D+01-0.338D+01 0.342D+00
 Gap=     0.142 Goal=   None    Shift=    0.000
 RMSDP=3.53D-05 MaxDP=1.29D-03 DE=-3.55D-03 OVMax= 1.58D-03

 Cycle  13  Pass 1  IDiag  1:
 E= -702.661471770698     Delta-E=       -0.000035197533 Rises=F Damp=F
 DIIS: error= 2.71D-04 at cycle  13 NSaved=  13.
 NSaved=13 IEnMin=13 EnMin= -702.661471770698     IErMin=13 ErrMin= 2.71D-04
 ErrMax= 2.71D-04  0.00D+00 EMaxC= 1.00D-01 BMatC= 8.97D-06 BMatP= 3.93D-05
 IDIUse=3 WtCom= 9.97D-01 WtEn= 2.71D-03
 Coeff-Com:  0.525D-03-0.465D-03 0.250D-04 0.741D-03-0.173D-02-0.130D-01
 Coeff-Com: -0.104D+00-0.685D-01 0.139D+00 0.806D+00-0.582D+00 0.291D+00
 Coeff-Com:  0.532D+00
 Coeff-En:   0.000D+00 0.000D+00 0.000D+00 0.000D+00 0.000D+00 0.000D+00
 Coeff-En:   0.000D+00 0.000D+00 0.000D+00 0.000D+00 0.000D+00 0.000D+00
 Coeff-En:   0.100D+01
 Coeff:      0.523D-03-0.464D-03 0.249D-04 0.739D-03-0.173D-02-0.129D-01
 Coeff:     -0.104D+00-0.684D-01 0.139D+00 0.804D+00-0.580D+00 0.290D+00
 Coeff:      0.533D+00
 Gap=     0.142 Goal=   None    Shift=    0.000
 RMSDP=1.54D-05 MaxDP=4.92D-04 DE=-3.52D-05 OVMax= 5.42D-04

 Cycle  14  Pass 1  IDiag  1:
 E= -702.661480275180     Delta-E=       -0.000008504483 Rises=F Damp=F
 DIIS: error= 3.80D-05 at cycle  14 NSaved=  14.
 NSaved=14 IEnMin=14 EnMin= -702.661480275180     IErMin=14 ErrMin= 3.80D-05
 ErrMax= 3.80D-05  0.00D+00 EMaxC= 1.00D-01 BMatC= 1.96D-07 BMatP= 8.97D-06
 IDIUse=1 WtCom= 1.00D+00 WtEn= 0.00D+00
 Coeff-Com:  0.296D-04-0.154D-04 0.687D-04 0.773D-03-0.466D-04-0.232D-02
 Coeff-Com: -0.347D-01-0.279D-01 0.278D-01 0.135D+00-0.537D-01 0.104D+00
 Coeff-Com:  0.220D+00 0.632D+00
 Coeff:      0.296D-04-0.154D-04 0.687D-04 0.773D-03-0.466D-04-0.232D-02
 Coeff:     -0.347D-01-0.279D-01 0.278D-01 0.135D+00-0.537D-01 0.104D+00
 Coeff:      0.220D+00 0.632D+00
 Gap=     0.142 Goal=   None    Shift=    0.000
 RMSDP=3.21D-06 MaxDP=9.05D-05 DE=-8.50D-06 OVMax= 9.73D-05

 Cycle  15  Pass 1  IDiag  1:
 E= -702.661480442777     Delta-E=       -0.000000167597 Rises=F Damp=F
 DIIS: error= 1.26D-05 at cycle  15 NSaved=  15.
 NSaved=15 IEnMin=15 EnMin= -702.661480442777     IErMin=15 ErrMin= 1.26D-05
 ErrMax= 1.26D-05  0.00D+00 EMaxC= 1.00D-01 BMatC= 5.35D-08 BMatP= 1.96D-07
 IDIUse=1 WtCom= 1.00D+00 WtEn= 0.00D+00
 Coeff-Com: -0.472D-04 0.280D-04 0.309D-04 0.514D-03 0.311D-03 0.675D-03
 Coeff-Com: -0.980D-02-0.106D-01-0.378D-02-0.396D-01 0.666D-01 0.324D-01
 Coeff-Com:  0.854D-01 0.533D+00 0.345D+00
 Coeff:     -0.472D-04 0.280D-04 0.309D-04 0.514D-03 0.311D-03 0.675D-03
 Coeff:     -0.980D-02-0.106D-01-0.378D-02-0.396D-01 0.666D-01 0.324D-01
 Coeff:      0.854D-01 0.533D+00 0.345D+00
 Gap=     0.142 Goal=   None    Shift=    0.000
 RMSDP=1.25D-06 MaxDP=5.36D-05 DE=-1.68D-07 OVMax= 4.65D-05

 Cycle  16  Pass 1  IDiag  1:
 E= -702.661480488705     Delta-E=       -0.000000045928 Rises=F Damp=F
 DIIS: error= 1.40D-06 at cycle  16 NSaved=  16.
 NSaved=16 IEnMin=16 EnMin= -702.661480488705     IErMin=16 ErrMin= 1.40D-06
 ErrMax= 1.40D-06  0.00D+00 EMaxC= 1.00D-01 BMatC= 3.21D-10 BMatP= 5.35D-08
 IDIUse=1 WtCom= 1.00D+00 WtEn= 0.00D+00
 Coeff-Com: -0.736D-05 0.171D-05 0.211D-04 0.135D-04 0.440D-04 0.387D-04
 Coeff-Com:  0.132D-02 0.124D-02-0.363D-02-0.141D-01 0.116D-01-0.529D-02
 Coeff-Com: -0.676D-02 0.370D-02 0.361D-01 0.976D+00
 Coeff:     -0.736D-05 0.171D-05 0.211D-04 0.135D-04 0.440D-04 0.387D-04
 Coeff:      0.132D-02 0.124D-02-0.363D-02-0.141D-01 0.116D-01-0.529D-02
 Coeff:     -0.676D-02 0.370D-02 0.361D-01 0.976D+00
 Gap=     0.142 Goal=   None    Shift=    0.000
 RMSDP=2.17D-07 MaxDP=6.55D-06 DE=-4.59D-08 OVMax= 6.69D-06

 Cycle  17  Pass 1  IDiag  1:
 E= -702.661480489106     Delta-E=       -0.000000000402 Rises=F Damp=F
 DIIS: error= 8.73D-07 at cycle  17 NSaved=  17.
 NSaved=17 IEnMin=17 EnMin= -702.661480489106     IErMin=17 ErrMin= 8.73D-07
 ErrMax= 8.73D-07  0.00D+00 EMaxC= 1.00D-01 BMatC= 9.50D-11 BMatP= 3.21D-10
 IDIUse=1 WtCom= 1.00D+00 WtEn= 0.00D+00
 Coeff-Com: -0.264D-05 0.125D-06 0.135D-04-0.148D-04 0.150D-04-0.338D-04
 Coeff-Com:  0.119D-02 0.122D-02-0.203D-02-0.670D-02 0.406D-02-0.459D-02
 Coeff-Com: -0.758D-02-0.202D-01 0.791D-02 0.602D+00 0.425D+00
 Coeff:     -0.264D-05 0.125D-06 0.135D-04-0.148D-04 0.150D-04-0.338D-04
 Coeff:      0.119D-02 0.122D-02-0.203D-02-0.670D-02 0.406D-02-0.459D-02
 Coeff:     -0.758D-02-0.202D-01 0.791D-02 0.602D+00 0.425D+00
 Gap=     0.142 Goal=   None    Shift=    0.000
 RMSDP=6.73D-08 MaxDP=2.22D-06 DE=-4.02D-10 OVMax= 2.52D-06

 Cycle  18  Pass 1  IDiag  1:
 E= -702.661480489182     Delta-E=       -0.000000000075 Rises=F Damp=F
 DIIS: error= 3.33D-07 at cycle  18 NSaved=  18.
 NSaved=18 IEnMin=18 EnMin= -702.661480489182     IErMin=18 ErrMin= 3.33D-07
 ErrMax= 3.33D-07  0.00D+00 EMaxC= 1.00D-01 BMatC= 1.99D-11 BMatP= 9.50D-11
 IDIUse=1 WtCom= 1.00D+00 WtEn= 0.00D+00
 Coeff-Com:  0.257D-06 0.111D-06 0.387D-05-0.160D-04-0.244D-05-0.570D-04
 Coeff-Com:  0.373D-03 0.446D-03-0.176D-03 0.823D-04-0.112D-02-0.144D-02
 Coeff-Com: -0.298D-02-0.151D-01-0.607D-02 0.104D+00 0.303D+00 0.619D+00
 Coeff:      0.257D-06 0.111D-06 0.387D-05-0.160D-04-0.244D-05-0.570D-04
 Coeff:      0.373D-03 0.446D-03-0.176D-03 0.823D-04-0.112D-02-0.144D-02
 Coeff:     -0.298D-02-0.151D-01-0.607D-02 0.104D+00 0.303D+00 0.619D+00
 Gap=     0.142 Goal=   None    Shift=    0.000
 RMSDP=3.03D-08 MaxDP=6.45D-07 DE=-7.51D-11 OVMax= 8.33D-07

 Cycle  19  Pass 1  IDiag  1:
 E= -702.661480489197     Delta-E=       -0.000000000016 Rises=F Damp=F
 DIIS: error= 7.72D-08 at cycle  19 NSaved=  19.
 NSaved=19 IEnMin=19 EnMin= -702.661480489197     IErMin=19 ErrMin= 7.72D-08
 ErrMax= 7.72D-08  0.00D+00 EMaxC= 1.00D-01 BMatC= 2.36D-12 BMatP= 1.99D-11
 IDIUse=1 WtCom= 1.00D+00 WtEn= 0.00D+00
 Coeff-Com:  0.248D-06 0.213D-06 0.175D-05-0.973D-05-0.210D-05-0.350D-04
 Coeff-Com:  0.177D-03 0.219D-03 0.933D-05 0.431D-03-0.970D-03-0.655D-03
 Coeff-Com: -0.153D-02-0.869D-02-0.454D-02 0.305D-01 0.170D+00 0.399D+00
 Coeff-Com:  0.417D+00
 Coeff:      0.248D-06 0.213D-06 0.175D-05-0.973D-05-0.210D-05-0.350D-04
 Coeff:      0.177D-03 0.219D-03 0.933D-05 0.431D-03-0.970D-03-0.655D-03
 Coeff:     -0.153D-02-0.869D-02-0.454D-02 0.305D-01 0.170D+00 0.399D+00
 Coeff:      0.417D+00
 Gap=     0.142 Goal=   None    Shift=    0.000
 RMSDP=1.06D-08 MaxDP=3.30D-07 DE=-1.57D-11 OVMax= 3.32D-07

 Cycle  20  Pass 1  IDiag  1:
 E= -702.661480489201     Delta-E=       -0.000000000004 Rises=F Damp=F
 DIIS: error= 5.14D-08 at cycle  20 NSaved=  20.
 NSaved=20 IEnMin=20 EnMin= -702.661480489201     IErMin=20 ErrMin= 5.14D-08
 ErrMax= 5.14D-08  0.00D+00 EMaxC= 1.00D-01 BMatC= 8.35D-13 BMatP= 2.36D-12
 IDIUse=1 WtCom= 1.00D+00 WtEn= 0.00D+00
 Coeff-Com:  0.534D-07 0.247D-06-0.110D-06-0.182D-05-0.635D-06-0.596D-05
 Coeff-Com:  0.620D-06 0.361D-05 0.825D-04 0.323D-03-0.369D-03 0.407D-04
 Coeff-Com: -0.105D-03-0.122D-02-0.150D-02-0.178D-01 0.182D-01 0.825D-01
 Coeff-Com:  0.359D+00 0.560D+00
 Coeff:      0.534D-07 0.247D-06-0.110D-06-0.182D-05-0.635D-06-0.596D-05
 Coeff:      0.620D-06 0.361D-05 0.825D-04 0.323D-03-0.369D-03 0.407D-04
 Coeff:     -0.105D-03-0.122D-02-0.150D-02-0.178D-01 0.182D-01 0.825D-01
 Coeff:      0.359D+00 0.560D+00
 Gap=     0.142 Goal=   None    Shift=    0.000
 RMSDP=5.10D-09 MaxDP=1.38D-07 DE=-4.21D-12 OVMax= 1.77D-07

 Error on total polarization charges =  0.02317
 SCF Done:  E(RB3LYP) =  -702.661480489     A.U. after   20 cycles
            NFock= 20  Conv=0.51D-08     -V/T= 2.1758
 KE= 5.976109708520D+02 PE=-2.996957421621D+03 EE= 1.004183619296D+03
 Leave Link  502 at Mon Jun  7 16:39:04 2021, MaxMem=   536870912 cpu:             336.9 elap:              50.9
 (Enter /home/rheinheimer/Apps//g16/l601.exe)
 Copying SCF densities to generalized density rwf, IOpCl= 0 IROHF=0.

 **********************************************************************

            Population analysis using the SCF density.

 **********************************************************************

 Orbital symmetries:
       Occupied  (A) (A) (A) (A) (A) (A) (A) (A) (A) (A) (A) (A)
                 (A) (A) (A) (A) (A) (A) (A) (A) (A) (A) (A) (A)
                 (A) (A) (A) (A) (A) (A) (A) (A) (A) (A) (A) (A)
                 (A) (A) (A) (A) (A) (A) (A) (A) (A) (A) (A)
       Virtual   (A) (A) (A) (A) (A) (A) (A) (A) (A) (A) (A) (A)
                 (A) (A) (A) (A) (A) (A) (A) (A) (A) (A) (A) (A)
                 (A) (A) (A) (A) (A) (A) (A) (A) (A) (A) (A) (A)
                 (A) (A) (A) (A) (A) (A) (A) (A) (A) (A) (A) (A)
                 (A) (A) (A) (A) (A) (A) (A) (A) (A) (A) (A) (A)
                 (A) (A) (A) (A) (A) (A) (A) (A) (A) (A) (A) (A)
                 (A) (A) (A) (A) (A) (A) (A) (A) (A) (A) (A) (A)
                 (A) (A)
 The electronic state is 1-A.
 Alpha  occ. eigenvalues --  -19.17630 -19.17616 -19.16245 -19.16238 -19.12967
 Alpha  occ. eigenvalues --  -19.12927 -19.09789  -2.50942  -2.46818  -2.43317
 Alpha  occ. eigenvalues --   -1.63368  -1.62929  -1.62125  -1.59436  -1.58973
 Alpha  occ. eigenvalues --   -1.58262  -1.56228  -1.55391  -1.55251  -1.00299
 Alpha  occ. eigenvalues --   -0.99682  -0.93146  -0.92502  -0.90258  -0.89520
 Alpha  occ. eigenvalues --   -0.84635  -0.55021  -0.54197  -0.41297  -0.39083
 Alpha  occ. eigenvalues --   -0.38842  -0.38356  -0.38238  -0.37996  -0.37722
 Alpha  occ. eigenvalues --   -0.36367  -0.35921  -0.35174  -0.35148  -0.34763
 Alpha  occ. eigenvalues --   -0.34620  -0.33037  -0.32178  -0.31043  -0.29342
 Alpha  occ. eigenvalues --   -0.28796  -0.27493
 Alpha virt. eigenvalues --   -0.13297  -0.11219  -0.10010  -0.08330  -0.08195
 Alpha virt. eigenvalues --   -0.08019  -0.07317  -0.07296  -0.05186  -0.04107
 Alpha virt. eigenvalues --   -0.04019  -0.02524  -0.01354  -0.00795   0.00165
 Alpha virt. eigenvalues --    0.00390   0.01084   0.01674   0.01941   0.02471
 Alpha virt. eigenvalues --    0.02526   0.03951   0.04572   0.04880   0.05119
 Alpha virt. eigenvalues --    0.08725   0.09837   0.10488   0.11779   0.12217
 Alpha virt. eigenvalues --    0.13795   0.15309   0.16145   0.16756   0.16825
 Alpha virt. eigenvalues --    0.19608   0.20068   0.22688   0.30307   0.31102
 Alpha virt. eigenvalues --    0.31864   0.32700   0.33609   0.33813   0.33843
 Alpha virt. eigenvalues --    0.35530   0.36535   0.37303   0.40148   0.42223
 Alpha virt. eigenvalues --    0.47021   0.50395   0.52182   0.62318   0.67521
 Alpha virt. eigenvalues --    0.71288   0.72441   0.73521   0.75343   0.78758
 Alpha virt. eigenvalues --    0.78871   0.82859   0.83005   0.83263   0.83629
 Alpha virt. eigenvalues --    0.87026   0.88077   0.89394   0.90769   0.92910
 Alpha virt. eigenvalues --    0.95007   0.95944   0.97188   1.02195   1.03065
 Alpha virt. eigenvalues --    1.07530   1.37044   1.48508   1.48780   1.51812
 Alpha virt. eigenvalues --    1.60225   1.62863   1.83069   4.42867  16.04695
 Alpha virt. eigenvalues --   22.82165
     Molecular Orbital Coefficients:
                           1         2         3         4         5
                           O         O         O         O         O
     Eigenvalues --   -19.17630 -19.17616 -19.16245 -19.16238 -19.12967
   1 1   Ti 1S         -0.00002  -0.00002   0.00092   0.00089   0.00071
   2        2S          0.00006   0.00006   0.00029   0.00028   0.00013
   3        3S          0.00028   0.00024  -0.00053  -0.00052  -0.00061
   4        4PX         0.00003   0.00003   0.00012   0.00012  -0.00004
   5        4PY         0.00000  -0.00000   0.00000   0.00000   0.00012
   6        4PZ        -0.00000   0.00000  -0.00017   0.00018   0.00000
   7        5PX        -0.00022  -0.00018   0.00193   0.00188  -0.00177
   8        5PY         0.00015  -0.00015  -0.00000  -0.00000   0.00026
   9        5PZ         0.00000  -0.00000  -0.00039   0.00039   0.00001
  10        6PX         0.00009   0.00010   0.00016   0.00015  -0.00017
  11        6PY        -0.00027   0.00028  -0.00001  -0.00000  -0.00028
  12        6PZ        -0.00000  -0.00000   0.00035  -0.00036  -0.00000
  13        7D 0       -0.00002  -0.00002   0.00005   0.00004  -0.00004
  14        7D+1       -0.00000   0.00000  -0.00005   0.00006  -0.00000
  15        7D-1       -0.00000  -0.00000  -0.00000   0.00000   0.00000
  16        7D+2        0.00001   0.00001   0.00002   0.00002  -0.00000
  17        7D-2        0.00001  -0.00001   0.00000  -0.00000  -0.00007
  18        8D 0        0.00001   0.00001   0.00011   0.00010  -0.00064
  19        8D+1       -0.00000   0.00000  -0.00049   0.00050  -0.00001
  20        8D-1        0.00000  -0.00000  -0.00000   0.00000   0.00001
  21        8D+2       -0.00011  -0.00012   0.00057   0.00055   0.00026
  22        8D-2       -0.00040   0.00042   0.00001   0.00002  -0.00070
  23 2   Ti 1S          0.00000   0.00001   0.00013   0.00014   0.00062
  24        2S         -0.00000  -0.00000   0.00010   0.00010   0.00018
  25        3S         -0.00022  -0.00017   0.00116   0.00113  -0.00063
  26        4PX        -0.00000  -0.00000   0.00002   0.00002   0.00009
  27        4PY        -0.00001   0.00001  -0.00000  -0.00000   0.00016
  28        4PZ        -0.00000   0.00000  -0.00000   0.00000   0.00000
  29        5PX        -0.00012  -0.00008   0.00059   0.00057   0.00015
  30        5PY        -0.00015   0.00016  -0.00000   0.00000   0.00035
  31        5PZ        -0.00000   0.00000  -0.00003   0.00003   0.00000
  32        6PX        -0.00006  -0.00005   0.00009   0.00009  -0.00012
  33        6PY         0.00011  -0.00012   0.00000  -0.00000  -0.00003
  34        6PZ         0.00000   0.00000  -0.00014   0.00015   0.00000
  35        7D 0        0.00000   0.00000  -0.00001  -0.00001  -0.00007
  36        7D+1        0.00000  -0.00000   0.00001  -0.00001   0.00000
  37        7D-1       -0.00000  -0.00000   0.00000   0.00000   0.00000
  38        7D+2        0.00000   0.00000  -0.00001  -0.00001  -0.00002
  39        7D-2        0.00001  -0.00001  -0.00000  -0.00000   0.00008
  40        8D 0       -0.00001  -0.00001   0.00006   0.00006  -0.00042
  41        8D+1       -0.00000   0.00000  -0.00019   0.00019   0.00000
  42        8D-1       -0.00000   0.00000   0.00000  -0.00000   0.00001
  43        8D+2       -0.00000   0.00002  -0.00012  -0.00011   0.00034
  44        8D-2       -0.00014   0.00015   0.00001   0.00001   0.00046
  45 3   O  1S         -0.00001   0.00001   0.00001   0.00001   0.00175
  46        2S         -0.00004   0.00004   0.00000   0.00000   0.00013
  47        3S          0.00014  -0.00014   0.00003   0.00002  -0.00036
  48        4PX        -0.00001   0.00000  -0.00001  -0.00001  -0.00000
  49        4PY        -0.00001  -0.00000   0.00003   0.00003  -0.00001
  50        4PZ         0.00000   0.00000   0.00000  -0.00000  -0.00000
  51        5PX         0.00009  -0.00009   0.00006   0.00005  -0.00000
  52        5PY         0.00006   0.00001  -0.00016  -0.00017  -0.00023
  53        5PZ        -0.00000  -0.00000  -0.00003   0.00003  -0.00000
  54 4   O  1S          0.00001  -0.00001   0.00000   0.00000   0.99886
  55        2S          0.00004  -0.00005   0.00000  -0.00000   0.00639
  56        3S         -0.00014   0.00015   0.00004   0.00004  -0.00449
  57        4PX        -0.00000  -0.00000  -0.00001  -0.00001  -0.00001
  58        4PY         0.00000   0.00001  -0.00003  -0.00002  -0.00077
  59        4PZ        -0.00000   0.00000   0.00000  -0.00000  -0.00001
  60        5PX        -0.00008   0.00008   0.00006   0.00006  -0.00014
  61        5PY        -0.00000  -0.00006   0.00016   0.00015   0.00101
  62        5PZ         0.00000  -0.00000  -0.00003   0.00003   0.00001
  63 5   O  1S         -0.00001  -0.00001   0.99874  -0.01493  -0.00001
  64        2S         -0.00003  -0.00002   0.00636   0.00008  -0.00001
  65        3S          0.00018   0.00017  -0.00436  -0.00051   0.00008
  66        4PX         0.00002   0.00002  -0.00002  -0.00002   0.00001
  67        4PY        -0.00001   0.00001  -0.00000  -0.00000  -0.00000
  68        4PZ         0.00002   0.00002   0.00082  -0.00004   0.00004
  69        5PX        -0.00008  -0.00008  -0.00005   0.00004  -0.00009
  70        5PY         0.00001  -0.00001   0.00000   0.00000   0.00004
  71        5PZ        -0.00004  -0.00004  -0.00093  -0.00018  -0.00023
  72 6   O  1S         -0.00001  -0.00001   0.01494   0.99874  -0.00001
  73        2S         -0.00003  -0.00002   0.00027   0.00636  -0.00001
  74        3S          0.00018   0.00017  -0.00064  -0.00435   0.00009
  75        4PX         0.00002   0.00002  -0.00002  -0.00002   0.00000
  76        4PY        -0.00001   0.00000  -0.00000   0.00000   0.00000
  77        4PZ        -0.00002  -0.00002   0.00002  -0.00082  -0.00004
  78        5PX        -0.00008  -0.00008   0.00004  -0.00004  -0.00009
  79        5PY         0.00001   0.00000  -0.00000  -0.00000   0.00003
  80        5PZ         0.00004   0.00005   0.00020   0.00093   0.00023
  81 7   O  1S          0.00000   0.00000  -0.00001  -0.00001   0.00006
  82        2S          0.00001   0.00001  -0.00006  -0.00006   0.00014
  83        3S         -0.00003  -0.00004   0.00021   0.00018  -0.00051
  84        4PX        -0.00000  -0.00000   0.00001   0.00001   0.00000
  85        4PY         0.00001  -0.00001  -0.00000  -0.00000  -0.00003
  86        4PZ         0.00000   0.00000   0.00002  -0.00002   0.00000
  87        5PX        -0.00000  -0.00000  -0.00000  -0.00001  -0.00015
  88        5PY        -0.00005   0.00005   0.00000   0.00000   0.00020
  89        5PZ        -0.00000  -0.00000  -0.00010   0.00011  -0.00002
  90 8   Ti 1S          0.00098   0.00098   0.00027   0.00027   0.00016
  91        2S          0.00025   0.00025   0.00002   0.00002   0.00006
  92        3S         -0.00037  -0.00039  -0.00077  -0.00075   0.00115
  93        4PX         0.00005   0.00005  -0.00002  -0.00002  -0.00001
  94        4PY        -0.00006   0.00006  -0.00000   0.00000  -0.00001
  95        4PZ        -0.00000  -0.00000  -0.00010   0.00010   0.00000
  96        5PX         0.00061   0.00061  -0.00029  -0.00027  -0.00054
  97        5PY        -0.00062   0.00062   0.00000   0.00000   0.00006
  98        5PZ         0.00000  -0.00001  -0.00028   0.00029   0.00000
  99        6PX        -0.00020  -0.00020   0.00021   0.00021  -0.00010
 100        6PY         0.00039  -0.00040   0.00001   0.00000   0.00012
 101        6PZ        -0.00000   0.00001  -0.00002   0.00002   0.00000
 102        7D 0       -0.00006  -0.00006   0.00001   0.00001   0.00002
 103        7D+1       -0.00000  -0.00000   0.00010  -0.00010   0.00000
 104        7D-1       -0.00000  -0.00000   0.00000  -0.00000   0.00000
 105        7D+2       -0.00001  -0.00001   0.00001   0.00001   0.00001
 106        7D-2       -0.00001   0.00001   0.00000   0.00000   0.00002
 107        8D 0       -0.00031  -0.00031   0.00011   0.00011   0.00000
 108        8D+1        0.00000  -0.00001   0.00030  -0.00032   0.00000
 109        8D-1       -0.00000  -0.00002   0.00000  -0.00000   0.00000
 110        8D+2       -0.00044  -0.00044   0.00063   0.00061  -0.00005
 111        8D-2       -0.00071   0.00072   0.00001   0.00002  -0.00043
 112 9   O  1S          0.99880  -0.00263   0.00001   0.00001  -0.00001
 113        2S          0.00652   0.00002  -0.00000  -0.00000   0.00003
 114        3S         -0.00437  -0.00000   0.00013   0.00013  -0.00019
 115        4PX         0.00037  -0.00004  -0.00001  -0.00001   0.00001
 116        4PY        -0.00051   0.00003   0.00004   0.00004  -0.00001
 117        4PZ        -0.00000   0.00000   0.00000  -0.00000  -0.00000
 118        5PX        -0.00037   0.00031  -0.00001  -0.00001  -0.00006
 119        5PY         0.00052  -0.00015  -0.00023  -0.00022  -0.00002
 120        5PZ        -0.00000  -0.00000  -0.00003   0.00003   0.00000
 121 10  H  1S          0.00009  -0.00005  -0.00007  -0.00007   0.00003
 122        2S          0.00100  -0.00011   0.00003   0.00003  -0.00003
 123 11  O  1S          0.00262   0.99880   0.00001   0.00001   0.00001
 124        2S          0.00006   0.00652  -0.00000   0.00000  -0.00005
 125        3S         -0.00003  -0.00438   0.00013   0.00012   0.00021
 126        4PX        -0.00003   0.00038  -0.00001  -0.00001  -0.00002
 127        4PY        -0.00003   0.00051  -0.00004  -0.00004   0.00001
 128        4PZ         0.00000  -0.00001   0.00000  -0.00001  -0.00000
 129        5PX         0.00030  -0.00038  -0.00001  -0.00002   0.00011
 130        5PY         0.00015  -0.00052   0.00023   0.00023  -0.00009
 131        5PZ        -0.00000   0.00001  -0.00003   0.00004   0.00000
 132 12  H  1S         -0.00005   0.00009  -0.00007  -0.00006  -0.00001
 133        2S         -0.00010   0.00100   0.00002   0.00002  -0.00002
                           6         7         8         9        10
                           O         O         O         O         O
     Eigenvalues --   -19.12927 -19.09789  -2.50942  -2.46818  -2.43317
   1 1   Ti 1S          0.00073  -0.00056   0.00046  -0.01059   0.00120
   2        2S          0.00014  -0.00016   0.02138   1.00162  -0.02636
   3        3S         -0.00059   0.00005  -0.00519   0.01178  -0.00779
   4        4PX        -0.00004   0.00002   0.00177   0.01021  -0.00200
   5        4PY        -0.00012  -0.00000   0.00002   0.00010   0.00001
   6        4PZ        -0.00000   0.00000  -0.00000  -0.00003   0.00000
   7        5PX        -0.00172  -0.00053   0.00116   0.00077   0.01534
   8        5PY        -0.00026   0.00000   0.00011   0.00002  -0.00007
   9        5PZ        -0.00000   0.00000  -0.00000  -0.00001  -0.00004
  10        6PX        -0.00015  -0.00045  -0.00028   0.00036   0.00541
  11        6PY         0.00028   0.00000  -0.00007   0.00003   0.00001
  12        6PZ         0.00000  -0.00001   0.00001  -0.00000  -0.00006
  13        7D 0       -0.00004  -0.00003  -0.00068  -0.00043  -0.00045
  14        7D+1        0.00000  -0.00000  -0.00001  -0.00001   0.00000
  15        7D-1        0.00000   0.00000   0.00000  -0.00003   0.00000
  16        7D+2        0.00000  -0.00002   0.00102   0.00129   0.00083
  17        7D-2        0.00007  -0.00000   0.00002  -0.00002  -0.00001
  18        8D 0       -0.00065   0.00016  -0.00193   0.00326   0.00379
  19        8D+1        0.00001   0.00003   0.00000   0.00007  -0.00003
  20        8D-1        0.00001   0.00000   0.00003  -0.00001  -0.00010
  21        8D+2        0.00028  -0.00040  -0.00320  -0.00307   0.00185
  22        8D-2        0.00071   0.00000  -0.00011  -0.00001  -0.00010
  23 2   Ti 1S          0.00062   0.00190   0.00103  -0.00060  -0.00831
  24        2S          0.00018   0.00068   0.00003   0.02555   1.00121
  25        3S         -0.00060  -0.00091   0.00170  -0.00462   0.01969
  26        4PX         0.00008  -0.00026  -0.00017   0.00152  -0.00926
  27        4PY        -0.00016   0.00000  -0.00000  -0.00001   0.00015
  28        4PZ        -0.00000  -0.00001  -0.00000  -0.00002  -0.00070
  29        5PX         0.00016  -0.00090   0.00229  -0.00237   0.00690
  30        5PY        -0.00034   0.00001  -0.00011   0.00001  -0.00008
  31        5PZ        -0.00000  -0.00002  -0.00000   0.00000   0.00001
  32        6PX        -0.00012   0.00030  -0.00035  -0.00070   0.00169
  33        6PY         0.00003  -0.00000   0.00005  -0.00001  -0.00003
  34        6PZ         0.00000   0.00001  -0.00000   0.00001   0.00004
  35        7D 0       -0.00007  -0.00005   0.00003  -0.00038   0.00272
  36        7D+1        0.00000  -0.00000   0.00000  -0.00001  -0.00014
  37        7D-1        0.00000   0.00000  -0.00000  -0.00001  -0.00004
  38        7D+2       -0.00002   0.00002   0.00001   0.00111  -0.00106
  39        7D-2       -0.00009  -0.00000   0.00000  -0.00002   0.00004
  40        8D 0       -0.00042  -0.00057  -0.00019   0.00242   0.00012
  41        8D+1       -0.00001   0.00005   0.00001   0.00008  -0.00003
  42        8D-1        0.00000  -0.00000  -0.00002  -0.00005   0.00002
  43        8D+2        0.00033   0.00106   0.00170   0.00024  -0.00181
  44        8D-2       -0.00046  -0.00002  -0.00010  -0.00001   0.00000
  45 3   O  1S          0.99886  -0.00005  -0.00002  -0.00158  -0.00297
  46        2S          0.00640   0.00013   0.00027   0.00222   0.00506
  47        3S         -0.00450  -0.00039  -0.00078   0.00603   0.00601
  48        4PX         0.00000   0.00003   0.00027   0.00290  -0.00484
  49        4PY         0.00077   0.00002  -0.00006   0.00281   0.00499
  50        4PZ         0.00001   0.00000   0.00000   0.00003   0.00006
  51        5PX        -0.00016  -0.00010  -0.00146  -0.00209   0.00362
  52        5PY        -0.00101  -0.00030   0.00029   0.00033  -0.00045
  53        5PZ        -0.00002  -0.00001  -0.00002   0.00000   0.00000
  54 4   O  1S         -0.00174  -0.00005  -0.00002  -0.00159  -0.00299
  55        2S          0.00011   0.00013   0.00029   0.00224   0.00512
  56        3S         -0.00034  -0.00039  -0.00087   0.00599   0.00597
  57        4PX        -0.00000   0.00003   0.00027   0.00286  -0.00495
  58        4PY         0.00001  -0.00002   0.00006  -0.00285  -0.00496
  59        4PZ        -0.00000   0.00000  -0.00000  -0.00004  -0.00006
  60        5PX         0.00000  -0.00010  -0.00154  -0.00208   0.00362
  61        5PY         0.00023   0.00031  -0.00027  -0.00029   0.00042
  62        5PZ         0.00001  -0.00000   0.00002  -0.00001   0.00001
  63 5   O  1S         -0.00001   0.00001  -0.00139  -0.00346   0.00013
  64        2S         -0.00001  -0.00006   0.00186   0.00647   0.00046
  65        3S          0.00008   0.00021   0.00594   0.00578  -0.00284
  66        4PX         0.00001  -0.00001   0.00255  -0.00551   0.00012
  67        4PY         0.00000  -0.00000   0.00002  -0.00005   0.00000
  68        4PZ         0.00004  -0.00001   0.00257   0.00591  -0.00029
  69        5PX        -0.00009   0.00003  -0.00133   0.00478   0.00066
  70        5PY        -0.00004  -0.00000  -0.00001   0.00004  -0.00001
  71        5PZ        -0.00023   0.00011  -0.00012  -0.00082   0.00025
  72 6   O  1S         -0.00001   0.00001  -0.00139  -0.00346   0.00013
  73        2S         -0.00000  -0.00005   0.00185   0.00647   0.00045
  74        3S          0.00007   0.00018   0.00594   0.00575  -0.00281
  75        4PX         0.00001  -0.00001   0.00254  -0.00553   0.00012
  76        4PY         0.00000   0.00000   0.00003  -0.00004  -0.00001
  77        4PZ        -0.00004   0.00001  -0.00257  -0.00588   0.00029
  78        5PX        -0.00009   0.00003  -0.00133   0.00479   0.00065
  79        5PY        -0.00005  -0.00000  -0.00003   0.00005   0.00006
  80        5PZ         0.00024  -0.00010   0.00013   0.00080  -0.00025
  81 7   O  1S          0.00006   0.99885   0.00000  -0.00013  -0.00579
  82        2S          0.00014   0.00631   0.00006   0.00021   0.01188
  83        3S         -0.00051  -0.00422  -0.00064   0.00045   0.00425
  84        4PX         0.00000   0.00068  -0.00003   0.00025   0.01257
  85        4PY         0.00003  -0.00001   0.00000  -0.00000  -0.00011
  86        4PZ         0.00000   0.00002  -0.00000  -0.00001   0.00031
  87        5PX        -0.00015  -0.00074  -0.00010  -0.00010  -0.00550
  88        5PY        -0.00020   0.00001  -0.00002   0.00000   0.00004
  89        5PZ        -0.00002  -0.00002  -0.00001   0.00009  -0.00010
  90 8   Ti 1S          0.00015   0.00024  -0.01112   0.00175  -0.00078
  91        2S          0.00006   0.00009   1.00489  -0.02173  -0.00001
  92        3S          0.00110   0.00055   0.00862  -0.00614  -0.01015
  93        4PX        -0.00001  -0.00001   0.00141  -0.00198   0.00045
  94        4PY         0.00001  -0.00000  -0.00002  -0.00001  -0.00000
  95        4PZ         0.00000  -0.00000  -0.00006   0.00001  -0.00000
  96        5PX        -0.00050  -0.00038   0.00511   0.00472   0.00441
  97        5PY        -0.00008  -0.00001   0.00002   0.00001   0.00011
  98        5PZ        -0.00000  -0.00000  -0.00002  -0.00002   0.00001
  99        6PX        -0.00010   0.00010  -0.00200   0.00018  -0.00023
 100        6PY        -0.00013  -0.00000   0.00001  -0.00000   0.00000
 101        6PZ         0.00000   0.00000  -0.00000   0.00000   0.00002
 102        7D 0        0.00002  -0.00001  -0.00115  -0.00053  -0.00002
 103        7D+1       -0.00000  -0.00000  -0.00000  -0.00001   0.00000
 104        7D-1        0.00000  -0.00000   0.00001  -0.00000  -0.00000
 105        7D+2        0.00001  -0.00001  -0.00058   0.00111  -0.00007
 106        7D-2       -0.00002  -0.00000  -0.00001   0.00002   0.00001
 107        8D 0        0.00001  -0.00009  -0.00034  -0.00405   0.00004
 108        8D+1        0.00000   0.00000   0.00001   0.00001  -0.00001
 109        8D-1       -0.00000   0.00000   0.00000   0.00000  -0.00001
 110        8D+2       -0.00007   0.00009  -0.00287  -0.00399  -0.00019
 111        8D-2        0.00044   0.00001  -0.00007  -0.00002  -0.00011
 112 9   O  1S          0.00001  -0.00000  -0.00375   0.00013  -0.00000
 113        2S         -0.00005   0.00001   0.00718   0.00049   0.00003
 114        3S          0.00021  -0.00004   0.00606  -0.00325   0.00001
 115        4PX        -0.00002   0.00000  -0.00472   0.00012  -0.00005
 116        4PY        -0.00001   0.00000   0.00764  -0.00034   0.00010
 117        4PZ         0.00000   0.00000  -0.00001  -0.00000   0.00000
 118        5PX         0.00012   0.00000   0.00635   0.00063   0.00024
 119        5PY         0.00010  -0.00003  -0.00913   0.00078  -0.00051
 120        5PZ        -0.00000  -0.00000   0.00001   0.00001  -0.00000
 121 10  H  1S         -0.00001   0.00000  -0.00088   0.00040  -0.00011
 122        2S         -0.00002  -0.00001  -0.00933  -0.00019  -0.00021
 123 11  O  1S         -0.00001  -0.00000  -0.00375   0.00013  -0.00000
 124        2S          0.00004   0.00001   0.00716   0.00049   0.00002
 125        3S         -0.00020  -0.00004   0.00611  -0.00324   0.00009
 126        4PX         0.00001   0.00000  -0.00468   0.00011  -0.00006
 127        4PY         0.00001  -0.00000  -0.00765   0.00034  -0.00010
 128        4PZ         0.00000   0.00000   0.00009   0.00000   0.00000
 129        5PX        -0.00006  -0.00000   0.00637   0.00065   0.00028
 130        5PY         0.00002   0.00003   0.00912  -0.00076   0.00049
 131        5PZ        -0.00000  -0.00000  -0.00015  -0.00004  -0.00000
 132 12  H  1S          0.00003   0.00000  -0.00089   0.00040  -0.00011
 133        2S         -0.00002  -0.00001  -0.00932  -0.00021  -0.00024
                          11        12        13        14        15
                           O         O         O         O         O
     Eigenvalues --    -1.63368  -1.62929  -1.62125  -1.59436  -1.58973
   1 1   Ti 1S         -0.00001  -0.00209  -0.00001   0.00389  -0.00001
   2        2S          0.00004   0.01088   0.00003  -0.01076   0.00004
   3        3S         -0.00009   0.00843   0.00003   0.00043   0.00001
   4        4PX        -0.00059  -0.19749  -0.00056   0.93716   0.00117
   5        4PY         0.01042  -0.00114  -0.00002  -0.00133  -0.00502
   6        4PZ        -0.00018   0.00036   0.05028  -0.00105   0.98925
   7        5PX         0.00040   0.02072  -0.00010  -0.00165  -0.00006
   8        5PY        -0.00226  -0.00014   0.00001  -0.00008  -0.00001
   9        5PZ        -0.00003  -0.00004  -0.00984   0.00004   0.00939
  10        6PX         0.00021   0.00437  -0.00002  -0.00068  -0.00006
  11        6PY        -0.00291   0.00007  -0.00001   0.00003  -0.00001
  12        6PZ         0.00006   0.00001   0.00410  -0.00002  -0.00608
  13        7D 0        0.00000   0.00259  -0.00000   0.00226  -0.00005
  14        7D+1       -0.00001   0.00003   0.00224  -0.00000   0.01148
  15        7D-1       -0.00000   0.00000   0.00002  -0.00003   0.00009
  16        7D+2       -0.00001  -0.00618  -0.00001   0.00415   0.00002
  17        7D-2        0.00034  -0.00011  -0.00000   0.00012  -0.00003
  18        8D 0        0.00002   0.00607   0.00004   0.00139  -0.00002
  19        8D+1        0.00003  -0.00001  -0.00302  -0.00014   0.00779
  20        8D-1       -0.00000  -0.00004  -0.00006  -0.00002   0.00004
  21        8D+2       -0.00011   0.00536  -0.00003   0.00403  -0.00001
  22        8D-2        0.00738   0.00018   0.00004   0.00010  -0.00001
  23 2   Ti 1S          0.00004   0.00190  -0.00000  -0.00313   0.00005
  24        2S         -0.00000  -0.00017  -0.00000   0.00534   0.00002
  25        3S          0.00047   0.01050  -0.00008   0.00017  -0.00007
  26        4PX         0.00005   0.02086   0.00008  -0.21957   0.00001
  27        4PY         0.00039  -0.00016   0.00002   0.00139   0.00012
  28        4PZ         0.00000   0.00000   0.00019  -0.00032   0.01632
  29        5PX         0.00026   0.00688  -0.00004  -0.00220  -0.00013
  30        5PY         0.00303   0.00004   0.00001   0.00011  -0.00002
  31        5PZ         0.00002  -0.00000   0.00180  -0.00002   0.00118
  32        6PX        -0.00003  -0.00123  -0.00000   0.00064   0.00004
  33        6PY         0.00070  -0.00006  -0.00000  -0.00004   0.00001
  34        6PZ        -0.00003  -0.00001  -0.00167   0.00001   0.00136
  35        7D 0        0.00000  -0.00033  -0.00000   0.00194  -0.00001
  36        7D+1       -0.00000  -0.00002  -0.00013   0.00017   0.00056
  37        7D-1       -0.00000   0.00000  -0.00000  -0.00002  -0.00000
  38        7D+2        0.00000   0.00051   0.00000  -0.00210  -0.00000
  39        7D-2       -0.00020  -0.00001   0.00000   0.00001   0.00000
  40        8D 0       -0.00001   0.00013  -0.00000  -0.00195   0.00001
  41        8D+1        0.00000  -0.00002   0.00057  -0.00021   0.00423
  42        8D-1        0.00001   0.00002  -0.00001   0.00012  -0.00003
  43        8D+2        0.00015  -0.00104   0.00001  -0.00591   0.00008
  44        8D-2        0.00276   0.00010   0.00001   0.00017  -0.00004
  45 3   O  1S          0.00009  -0.00175  -0.00000   0.01006   0.00005
  46        2S          0.00037   0.00269   0.00001  -0.02138  -0.00011
  47        3S         -0.00228   0.00638  -0.00001  -0.01688  -0.00009
  48        4PX        -0.00011   0.00133   0.00000  -0.00706  -0.00006
  49        4PY        -0.00011   0.00281   0.00000  -0.01592  -0.00009
  50        4PZ        -0.00000   0.00003   0.00005  -0.00020   0.00308
  51        5PX        -0.00144   0.00204  -0.00002   0.00514  -0.00003
  52        5PY        -0.00031   0.00018   0.00002  -0.00082  -0.00004
  53        5PZ        -0.00000   0.00006   0.00033   0.00002   0.00134
  54 4   O  1S         -0.00010  -0.00173  -0.00001   0.01003  -0.00005
  55        2S         -0.00035   0.00262   0.00001  -0.02137   0.00010
  56        3S          0.00233   0.00646   0.00004  -0.01674   0.00011
  57        4PX         0.00015   0.00124   0.00001  -0.00674   0.00007
  58        4PY        -0.00011  -0.00280  -0.00002   0.01599  -0.00010
  59        4PZ        -0.00000  -0.00003   0.00005   0.00020   0.00310
  60        5PX         0.00125   0.00213   0.00001   0.00525  -0.00001
  61        5PY        -0.00042  -0.00025   0.00000   0.00074  -0.00000
  62        5PZ        -0.00002  -0.00005   0.00037   0.00001   0.00130
  63 5   O  1S         -0.00001   0.00949   0.00667  -0.01158   0.01479
  64        2S          0.00001  -0.01958  -0.01559   0.02553  -0.03377
  65        3S          0.00005  -0.01950  -0.00975   0.01288  -0.01587
  66        4PX         0.00001  -0.00707  -0.00994  -0.01301   0.02101
  67        4PY         0.00262  -0.00004  -0.00004  -0.00018   0.00015
  68        4PZ         0.00000  -0.01562  -0.00848   0.01809  -0.01785
[...]
 133        2S         -0.00001   0.00000  -0.00001  -0.00007  -0.00000
                         121       122       123       124       125
 121 10  H  1S          0.19002
 122        2S          0.04439   0.02580
 123 11  O  1S         -0.00000   0.00000   2.11203
 124        2S          0.00000  -0.00000  -0.06425   0.52835
 125        3S          0.00000  -0.00000  -0.04571   0.40337   0.51319
 126        4PX        -0.00000  -0.00000   0.00000   0.00000   0.00000
 127        4PY        -0.00000  -0.00001   0.00000   0.00000   0.00000
 128        4PZ        -0.00000   0.00000   0.00000   0.00000   0.00000
 129        5PX        -0.00000  -0.00002   0.00000   0.00000   0.00000
 130        5PY         0.00000  -0.00007   0.00000   0.00000   0.00000
 131        5PZ        -0.00000  -0.00000   0.00000   0.00000   0.00000
 132 12  H  1S         -0.00000   0.00000  -0.00178   0.02711   0.02443
 133        2S          0.00000   0.00000  -0.00009   0.00304  -0.00576
                         126       127       128       129       130
 126        4PX         0.88420
 127        4PY        -0.00000   0.80922
 128        4PZ        -0.00000  -0.00000   0.93156
 129        5PX         0.21831  -0.00000   0.00000   0.21901
 130        5PY        -0.00000   0.17525  -0.00000  -0.00000   0.16536
 131        5PZ         0.00000  -0.00000   0.25300   0.00000  -0.00000
 132 12  H  1S          0.03722   0.08043   0.00003   0.02062   0.04415
 133        2S          0.00876   0.01886   0.00001   0.00813   0.01681
                         131       132       133
 131        5PZ         0.26940
 132 12  H  1S          0.00002   0.19001
 133        2S          0.00001   0.04438   0.02579
     Gross orbital populations:
                           1
   1 1   Ti 1S          0.27598
   2        2S          2.00927
   3        3S          0.07264
   4        4PX         2.01456
   5        4PY         2.00984
   6        4PZ         2.00891
   7        5PX        -0.20026
   8        5PY         0.07619
   9        5PZ         0.08578
  10        6PX        -0.01961
  11        6PY         0.00456
  12        6PZ        -0.00257
  13        7D 0        0.27197
  14        7D+1        0.48425
  15        7D-1        0.25719
  16        7D+2        0.28553
  17        7D-2        0.49710
  18        8D 0        0.07195
  19        8D+1        0.08141
  20        8D-1        0.10832
  21        8D+2        0.10777
  22        8D-2        0.06602
  23 2   Ti 1S          0.20574
  24        2S          2.00808
  25        3S          0.05117
  26        4PX         2.01037
  27        4PY         2.00776
  28        4PZ         2.00722
  29        5PX         0.01548
  30        5PY         0.08885
  31        5PZ         0.07624
  32        6PX         0.00188
  33        6PY        -0.00827
  34        6PZ         0.00214
  35        7D 0        0.44771
  36        7D+1        0.43062
  37        7D-1        0.30026
  38        7D+2        0.22707
  39        7D-2        0.44941
  40        8D 0        0.06293
  41        8D+1        0.05725
  42        8D-1        0.09474
  43        8D+2        0.05509
  44        8D-2        0.03399
  45 3   O  1S          1.99924
  46        2S          0.92565
  47        3S          0.99056
  48        4PX         1.11367
  49        4PY         1.13050
  50        4PZ         1.14528
  51        5PX         0.46216
  52        5PY         0.44088
  53        5PZ         0.52846
  54 4   O  1S          1.99924
  55        2S          0.92565
  56        3S          0.99056
  57        4PX         1.11367
  58        4PY         1.13049
  59        4PZ         1.14529
  60        5PX         0.46217
  61        5PY         0.44089
  62        5PZ         0.52847
  63 5   O  1S          1.99924
  64        2S          0.92591
  65        3S          0.98428
  66        4PX         1.11235
  67        4PY         1.14670
  68        4PZ         1.13215
  69        5PX         0.46408
  70        5PY         0.52112
  71        5PZ         0.44152
  72 6   O  1S          1.99924
  73        2S          0.92547
  74        3S          0.99439
  75        4PX         1.11000
  76        4PY         1.14210
  77        4PZ         1.13970
  78        5PX         0.46014
  79        5PY         0.52318
  80        5PZ         0.43950
  81 7   O  1S          1.99926
  82        2S          0.95735
  83        3S          0.95714
  84        4PX         1.08595
  85        4PY         1.09900
  86        4PZ         1.14064
  87        5PX         0.42791
  88        5PY         0.48248
  89        5PZ         0.37403
  90 8   Ti 1S          0.27296
  91        2S          2.01343
  92        3S          0.02995
  93        4PX         2.01629
  94        4PY         2.02067
  95        4PZ         2.01010
  96        5PX         0.04105
  97        5PY         0.06866
  98        5PZ         0.10906
  99        6PX         0.00678
 100        6PY        -0.00008
 101        6PZ        -0.00270
 102        7D 0        0.24484
 103        7D+1        0.48386
 104        7D-1        0.29210
 105        7D+2        0.35289
 106        7D-2        0.34971
 107        8D 0        0.04834
 108        8D+1        0.03060
 109        8D-1        0.11569
 110        8D+2        0.07486
 111        8D-2        0.08740
 112 9   O  1S          1.99916
 113        2S          0.91329
 114        3S          0.90144
 115        4PX         1.17723
 116        4PY         1.11430
 117        4PZ         1.21569
 118        5PX         0.49040
 119        5PY         0.38322
 120        5PZ         0.57222
 121 10  H  1S          0.46255
 122        2S          0.11231
 123 11  O  1S          1.99916
 124        2S          0.91329
 125        3S          0.90137
 126        4PX         1.17821
 127        4PY         1.11335
 128        4PZ         1.21572
 129        5PX         0.49133
 130        5PY         0.38217
 131        5PZ         0.57218
 132 12  H  1S          0.46254
 133        2S          0.11229
          Condensed to atoms (all electrons):
               1          2          3          4          5          6
     1  Ti  10.596315  -0.251963   0.165245   0.165224   0.134182   0.149210
     2  Ti  -0.251963  10.207862   0.159417   0.159452  -0.007762  -0.016669
     3  O    0.165245   0.159417   8.459019  -0.035989  -0.000330   0.002322
     4  O    0.165224   0.159452  -0.035989   8.459031  -0.000331   0.002324
     5  O    0.134182  -0.007762  -0.000330  -0.000331   8.448155  -0.040296
     6  O    0.149210  -0.016669   0.002322   0.002324  -0.040296   8.454533
     7  O   -0.048737   0.394536   0.000470   0.000471  -0.000006  -0.000002
     8  Ti  -0.285334  -0.018624  -0.013754  -0.013762   0.195963   0.183826
     9  O   -0.028743  -0.000410  -0.000002  -0.000000  -0.001081  -0.000750
    10  H    0.000032   0.000139   0.000000  -0.000000  -0.000033  -0.000010
    11  O   -0.028672  -0.000415  -0.000000  -0.000002  -0.001080  -0.000759
    12  H    0.000032   0.000139  -0.000000   0.000000  -0.000034  -0.000011
               7          8          9         10         11         12
     1  Ti  -0.048737  -0.285334  -0.028743   0.000032  -0.028672   0.000032
     2  Ti   0.394536  -0.018624  -0.000410   0.000139  -0.000415   0.000139
     3  O    0.000470  -0.013754  -0.000002   0.000000  -0.000000  -0.000000
     4  O    0.000471  -0.013762  -0.000000  -0.000000  -0.000002   0.000000
     5  O   -0.000006   0.195963  -0.001081  -0.000033  -0.001080  -0.000034
     6  O   -0.000002   0.183826  -0.000750  -0.000010  -0.000759  -0.000011
     7  O    8.177403  -0.000390  -0.000000  -0.000000  -0.000000  -0.000000
     8  Ti  -0.000390  10.230306   0.205859  -0.011745   0.205846  -0.011743
     9  O   -0.000000   0.205859   8.312482   0.281981  -0.002291  -0.000093
    10  H   -0.000000  -0.011745   0.281981   0.304588  -0.000094   0.000002
    11  O   -0.000000   0.205846  -0.002291  -0.000094   8.312281   0.281982
    12  H   -0.000000  -0.011743  -0.000093   0.000002   0.281982   0.304553
 Mulliken charges:
               1
     1  Ti   1.433210
     2  Ti   1.374296
     3  O   -0.736398
     4  O   -0.736417
     5  O   -0.727345
     6  O   -0.733717
     7  O   -0.523745
     8  Ti   1.333551
     9  O   -0.766953
    10  H    0.425140
    11  O   -0.766795
    12  H    0.425173
 Sum of Mulliken charges =  -0.00000
 Mulliken charges with hydrogens summed into heavy atoms:
               1
     1  Ti   1.433210
     2  Ti   1.374296
     3  O   -0.736398
     4  O   -0.736417
     5  O   -0.727345
     6  O   -0.733717
     7  O   -0.523745
     8  Ti   1.333551
     9  O   -0.341813
    11  O   -0.341623
 Electronic spatial extent (au):  <R**2>=           2644.0153
 Charge=             -0.0000 electrons
 Dipole moment (field-independent basis, Debye):
    X=             -0.3786    Y=              0.0124    Z=              6.3374  Tot=              6.3487
 Quadrupole moment (field-independent basis, Debye-Ang):
   XX=            -59.1460   YY=            -83.8220   ZZ=            -92.0558
   XY=              0.0069   XZ=            -25.2082   YZ=             -0.0091
 Traceless Quadrupole moment (field-independent basis, Debye-Ang):
   XX=             19.1953   YY=             -5.4807   ZZ=            -13.7146
   XY=              0.0069   XZ=            -25.2082   YZ=             -0.0091
 Octapole moment (field-independent basis, Debye-Ang**2):
  XXX=             57.1873  YYY=              0.1877  ZZZ=             15.8815  XYY=             53.8928
  XXY=             -0.0918  XXZ=            102.7268  XZZ=            -12.3260  YZZ=              0.0067
  YYZ=              1.9607  XYZ=             -0.0249
 Hexadecapole moment (field-independent basis, Debye-Ang**3):
 XXXX=          -2700.3919 YYYY=           -323.6023 ZZZZ=           -273.2533 XXXY=             -1.0358
 XXXZ=           -395.9507 YYYX=              0.4964 YYYZ=             -0.0367 ZZZX=            -51.2296
 ZZZY=             -0.0128 XXYY=           -387.7951 XXZZ=           -566.7688 YYZZ=           -111.5264
 XXYZ=             -0.1047 YYXZ=             -8.3570 ZZXY=              0.0027
 N-N= 7.092327392297D+02 E-N=-3.032954282026D+03  KE= 5.980158563030D+02
 Orbital energies and kinetic energies (alpha):
                                 1                 2
   1         O               -19.143453         29.124569
   2         O               -19.143406         29.124576
   3         O               -19.140992         29.126317
   4         O               -19.137354         29.126430
   5         O               -19.137347         29.126423
   6         O               -19.136047         29.126265
   7         O               -19.123686         29.127718
   8         O                -2.463119          1.344403
   9         O                -2.456593          1.342012
  10         O                -2.448019          1.341842
  11         O                -1.595951          2.305218
  12         O                -1.586619          2.376734
  13         O                -1.581804          2.368529
  14         O                -1.579668          2.376906
  15         O                -1.575357          2.377649
  16         O                -1.574521          2.374441
  17         O                -1.572981          2.381928
  18         O                -1.566603          2.405251
  19         O                -1.565028          2.389983
  20         O                -0.972504          2.777293
  21         O                -0.966250          2.821593
  22         O                -0.928950          2.906301
  23         O                -0.912908          3.065116
  24         O                -0.908937          3.073390
  25         O                -0.906440          3.065152
  26         O                -0.871021          3.139527
  27         O                -0.518360          2.163605
  28         O                -0.507950          2.302940
  29         O                -0.406984          2.292323
  30         O                -0.395009          2.499316
  31         O                -0.392140          2.504441
  32         O                -0.380476          2.354604
  33         O                -0.372042          2.283319
  34         O                -0.367752          2.256783
  35         O                -0.366663          2.177481
  36         O                -0.362744          2.182419
  37         O                -0.361734          2.316703
  38         O                -0.349289          2.231241
  39         O                -0.343458          2.272766
  40         O                -0.340751          2.186540
  41         O                -0.329075          2.527894
  42         O                -0.327968          2.410912
  43         O                -0.316559          2.397901
  44         O                -0.314669          2.341262
  45         O                -0.307684          2.400472
  46         O                -0.297633          2.395503
  47         O                -0.290549          2.393938
  48         V                -0.096966          3.644211
  49         V                -0.087999          3.712391
  50         V                -0.073781          3.649840
  51         V                -0.065534          3.624976
  52         V                -0.059636          3.694104
  53         V                -0.051828          3.015935
  54         V                -0.040999          4.035980
  55         V                -0.040411          3.840603
  56         V                -0.030484          3.683508
  57         V                -0.020402          3.520417
  58         V                -0.016683          3.720835
  59         V                -0.010306          3.804634
  60         V                -0.005435          0.884266
  61         V                -0.002072          3.222637
  62         V                 0.001915          2.815253
  63         V                 0.004225          2.689044
  64         V                 0.012209          1.798382
  65         V                 0.013156          0.739623
  66         V                 0.017556          1.865710
  67         V                 0.020309          0.687065
  68         V                 0.022844          0.563636
  69         V                 0.027715          0.333390
  70         V                 0.043070          0.227185
  71         V                 0.044882          0.291351
  72         V                 0.047495          0.258674
  73         V                 0.074541          0.672032
  74         V                 0.097012          0.738798
  75         V                 0.124181          0.827472
  76         V                 0.127219          0.830090
  77         V                 0.143175          0.909647
  78         V                 0.144238          0.892738
  79         V                 0.160986          1.179071
  80         V                 0.167181          1.049250
  81         V                 0.167767          1.177230
  82         V                 0.178459          1.135474
  83         V                 0.193238          0.968499
  84         V                 0.205441          1.203385
  85         V                 0.221430          1.151703
  86         V                 0.315110          1.451881
  87         V                 0.318740          1.465341
  88         V                 0.333375          1.446397
  89         V                 0.341774          1.431956
  90         V                 0.345804          1.378220
  91         V                 0.347714          1.631644
  92         V                 0.348128          1.473401
  93         V                 0.368266          1.485398
  94         V                 0.372226          1.361005
  95         V                 0.382588          1.462948
  96         V                 0.383714          1.328102
  97         V                 0.425647          2.162956
  98         V                 0.454512          1.653551
  99         V                 0.502740          1.573849
 100         V                 0.511310          1.675329
 101         V                 0.621641          2.028999
 102         V                 0.676227          2.849495
 103         V                 0.723748          2.870283
 104         V                 0.733721          2.959234
 105         V                 0.746919          2.889272
 106         V                 0.749952          2.876361
 107         V                 0.783173          2.864136
 108         V                 0.803239          3.028496
 109         V                 0.808081          2.899978
 110         V                 0.821243          3.247569
 111         V                 0.843961          2.944098
 112         V                 0.846515          2.816659
 113         V                 0.870498          2.916621
 114         V                 0.882284          3.093837
 115         V                 0.888861          2.926721
 116         V                 0.924641          3.010895
 117         V                 0.942506          2.951867
 118         V                 0.968149          3.058522
 119         V                 0.968850          3.325932
 120         V                 1.000573          3.203513
 121         V                 1.043932          2.971876
 122         V                 1.052411          2.947877
 123         V                 1.092359          3.347790
 124         V                 1.355170          3.788445
 125         V                 1.483297          3.989341
 126         V                 1.496804          4.111208
 127         V                 1.539782          4.346837
 128         V                 1.600951          4.210441
 129         V                 1.622050          4.185708
 130         V                 1.706884          4.201458
 131         V                 3.762477          2.418336
 132         V                11.045187          3.018032
 133         V                16.180923          4.132104
 Total kinetic energy from orbitals= 5.980158563030D+02
 No NMR shielding tensors so no spin-rotation constants.
 Leave Link  601 at Mon Jun  7 17:06:58 2021, MaxMem=   536870912 cpu:               4.0 elap:               0.6
 (Enter /home/rheinheimer/Apps//g16/l9999.exe)

 Test job not archived.
 1\1\GINC-POP-OS\FOpt\RB3LYP\LANL2DZ\H2O7Ti3\RHEINHEIMER\07-Jun-2021\0\
 \#P B3LYP/LANL2DZ # Opt # SCRF=(Solvent=Water) # Gfinput IOP(6/7=3) Po
 p=Full Density Test # Units(Ang,Deg)\\3-tio2.pdb\\0,1\Ti,1.1462266476,
 1.289044666,-0.0226847299\Ti,3.8593451865,1.2838733227,-0.6183024717\O
 ,2.4254700377,0.0658780796,-0.4757236085\O,2.5027328491,2.5067932713,-
 0.1452234221\O,-0.2140281957,1.155828623,1.2755234229\O,-0.2834159957,
 1.4889855461,-1.1638009726\O,4.8088245539,1.0729670033,0.7170917861\Ti
 ,-1.6261892845,1.3570126362,0.1230499923\O,-2.5801432588,-0.1364853667
 ,-0.0526875757\H,-3.1550278973,-0.90953479,-0.1422981392\O,-2.48266609
 37,2.9003148121,0.3585411135\H,-3.0019485493,3.7071021963,0.483194605\
 \Version=ES64L-G16RevA.03\State=1-A\HF=-702.7267348\RMSD=8.473e-09\RMS
 F=8.154e-05\Dipole=0.0049236,0.3395781,-2.4745638\Quadrupole=12.013264
 2,-4.2972761,-7.7159882,2.1793764,-19.904381,1.1291429\PG=C01 [X(H2O7T
 i3)]\\@


 IF YOU BELIEVE CERTAIN WORDS, YOU BELIEVE THEIR HIDDEN ARGUMENTS.
 WHEN YOU BELIEVE SOMETHING IS RIGHT OR WRONG, TRUE OR FALSE, 
 YOU BELIEVE THE ASSUMPTIONS IN THE WORDS WHICH EXPRESS THE ARGUMENTS.
 SUCH ASSUMPTIONS ARE OFTEN FULL OF HOLES, BUT REMAIN MOST PRECIOUS 
 TO THE CONVINCED.

                 -- THE OPEN-ENDED PROOF FROM THE PANOPLIA PROPHETICA
                    CHILDREN OF DUNE BY FRANK HERBERT
 Job cpu time:       0 days  3 hours 11 minutes  7.2 seconds.
 Elapsed time:       0 days  0 hours 28 minutes 43.1 seconds.
 File lengths (MBytes):  RWF=     62 Int=      0 D2E=      0 Chk=      5 Scr=      1
 Normal termination of Gaussian 16 at Mon Jun  7 17:06:58 2021.
