 *******************************************************************************
 ** Site#: 35487        For non-commercial use only    Version 20.323L 64BITS **
 *******************************************************************************
 ** Cite this program as: MOPAC2016, Version: 20.323L, James J. P. Stewart,   **
 ** Stewart Computational Chemistry, web: HTTP://OpenMOPAC.net. Days left: 165**
 *******************************************************************************
 **                                                                           **
 **                                MOPAC2016                                  **
 **                                                                           **
 *******************************************************************************

                              PM6 CALCULATION RESULTS

 *******************************************************************************
 *  CALCULATION DONE:                                Mon Jun  7 16:36:55 2021  *
 *  PM6        - The PM6 Hamiltonian to be used
 *  EPS= 78.40 - USE ANDREAS KLAMT'S COSMO IMPLICIT SOLVATION MODEL
 *  XYZ        - CARTESIAN COORDINATE SYSTEM TO BE USED
 *  T=         - A TIME OF 172800.0 SECONDS REQUESTED
 *  DUMP=N     - RESTART FILE WRITTEN EVERY 7200.0 SECONDS REQUESTED
 *  GNORM      - EXIT WHEN GRADIENT NORM DROPS BELOW 0.010
 *******************************************************************************
PM6 xyz gnorm=0.01 eps=78.4
 e-3-tio2-p.xyz

   ATOM   CHEMICAL          X               Y               Z
  NUMBER   SYMBOL      (ANGSTROMS)     (ANGSTROMS)     (ANGSTROMS)
 
     1      Ti          1.10771000  *   1.41320000  *  -0.03946000  *
     2      Ti          3.85641000  *   1.54539000  *  -0.06492000  *
     3       O          2.59825000  *   0.24907000  *   0.26630000  *
     4       O          2.43627000  *   2.63074000  *  -0.53887000  *
     5       O          0.25649000  *   0.15493000  *   0.47724000  *
     6       O         -0.28140000  *   2.55791000  *  -0.35239000  *
     7       O          4.77710000  *   0.23630000  *   0.21798000  *
     8      Ti         -1.64100000  *   1.28100000  *  -0.01400000  *
     9       O         -2.69905000  *  -0.32774000  *   0.44741000  *
    10       H         -3.44110000  *   0.15668000  *   0.81660000  *
    11       O         -2.75112000  *   2.87763000  *  -0.38655000  *
    12       H         -3.51105000  *   2.88353000  *   0.20003000  *
 


          CARTESIAN COORDINATES 

    NO.       ATOM           X           Y           Z

     1        Ti          1.1077      1.4132     -0.0395
     2        Ti          3.8564      1.5454     -0.0649
     3         O          2.5983      0.2491      0.2663
     4         O          2.4363      2.6307     -0.5389
     5         O          0.2565      0.1549      0.4772
     6         O         -0.2814      2.5579     -0.3524
     7         O          4.7771      0.2363      0.2180
     8        Ti         -1.6410      1.2810     -0.0140
     9         O         -2.6991     -0.3277      0.4474
    10         H         -3.4411      0.1567      0.8166
    11         O         -2.7511      2.8776     -0.3866
    12         H         -3.5111      2.8835      0.2000

 General Reference for PM6:
 "Optimization of Parameters for Semiempirical Methods V: Modification of NDDO Approximations
 and Application to 70 Elements", J. J. P. Stewart, J. Mol. Mod., 13, 1173-1213 (2007)
 URL: https://link.springer.com/article/10.1007/s00894-007-0233-4

           Empirical Formula: H2 O7 Ti3  =    12 atoms



      MOLECULAR POINT GROUP   :   C1  


      RHF CALCULATION, NO. OF DOUBLY OCCUPIED LEVELS = 28


          Geometry optimization using EF

          DIAGONAL MATRIX USED AS START HESSIAN

 CYCLE:     1 TIME:   0.055 TIME LEFT:  2.00D  GRAD.:   220.732 HEAT: -431.3208
 CYCLE:     2 TIME:   0.027 TIME LEFT:  2.00D  GRAD.:   134.139 HEAT: -463.0163
 CYCLE:     3 TIME:   0.027 TIME LEFT:  2.00D  GRAD.:   105.968 HEAT: -490.4566
 CYCLE:     4 TIME:   0.027 TIME LEFT:  2.00D  GRAD.:   117.127 HEAT: -515.9890
 CYCLE:     5 TIME:   0.031 TIME LEFT:  2.00D  GRAD.:   145.511 HEAT: -529.8826
 CYCLE:     6 TIME:   0.023 TIME LEFT:  2.00D  GRAD.:   159.931 HEAT: -533.4495
 CYCLE:     7 TIME:   0.027 TIME LEFT:  2.00D  GRAD.:   124.053 HEAT: -544.8315
 CYCLE:     8 TIME:   0.051 TIME LEFT:  2.00D  GRAD.:    53.492 HEAT: -551.6257
 CYCLE:     9 TIME:   0.051 TIME LEFT:  2.00D  GRAD.:    46.904 HEAT: -553.2886
 CYCLE:    10 TIME:   0.023 TIME LEFT:  2.00D  GRAD.:    27.352 HEAT: -555.4551
 CYCLE:    11 TIME:   0.027 TIME LEFT:  2.00D  GRAD.:    32.548 HEAT: -556.6959
 CYCLE:    12 TIME:   0.023 TIME LEFT:  2.00D  GRAD.:    46.861 HEAT: -557.4733
 CYCLE:    13 TIME:   0.051 TIME LEFT:  2.00D  GRAD.:    30.182 HEAT: -558.2320
 CYCLE:    14 TIME:   0.023 TIME LEFT:  2.00D  GRAD.:    21.295 HEAT: -558.9089
 CYCLE:    15 TIME:   0.023 TIME LEFT:  2.00D  GRAD.:    23.325 HEAT: -559.4361
 CYCLE:    16 TIME:   0.027 TIME LEFT:  2.00D  GRAD.:    27.622 HEAT: -559.7944
 CYCLE:    17 TIME:   0.023 TIME LEFT:  2.00D  GRAD.:    23.473 HEAT: -560.3445
 CYCLE:    18 TIME:   0.035 TIME LEFT:  2.00D  GRAD.:    16.197 HEAT: -561.0050
 CYCLE:    19 TIME:   0.031 TIME LEFT:  2.00D  GRAD.:    13.074 HEAT: -561.6175
 CYCLE:    20 TIME:   0.031 TIME LEFT:  2.00D  GRAD.:    20.700 HEAT: -562.7332
 CYCLE:    21 TIME:   0.023 TIME LEFT:  2.00D  GRAD.:    49.181 HEAT: -564.9162
 CYCLE:    22 TIME:   0.027 TIME LEFT:  2.00D  GRAD.:    91.989 HEAT: -566.8305
 CYCLE:    23 TIME:   0.051 TIME LEFT:  2.00D  GRAD.:   108.801 HEAT: -568.5248
 CYCLE:    24 TIME:   0.023 TIME LEFT:  2.00D  GRAD.:    93.685 HEAT: -571.5786
 CYCLE:    25 TIME:   0.031 TIME LEFT:  2.00D  GRAD.:   123.657 HEAT: -573.9594
 CYCLE:    26 TIME:   0.039 TIME LEFT:  2.00D  GRAD.:    70.330 HEAT: -579.6393
 CYCLE:    27 TIME:   0.047 TIME LEFT:  2.00D  GRAD.:    67.923 HEAT: -586.3531
 CYCLE:    28 TIME:   0.039 TIME LEFT:  2.00D  GRAD.:    57.728 HEAT: -590.2949
 CYCLE:    29 TIME:   0.039 TIME LEFT:  2.00D  GRAD.:    59.812 HEAT: -590.7947
 CYCLE:    30 TIME:   0.066 TIME LEFT:  2.00D  GRAD.:    62.242 HEAT: -591.6734
 CYCLE:    31 TIME:   0.035 TIME LEFT:  2.00D  GRAD.:    44.577 HEAT: -592.2387
 CYCLE:    32 TIME:   0.027 TIME LEFT:  2.00D  GRAD.:    13.103 HEAT: -593.4859
 CYCLE:    33 TIME:   0.023 TIME LEFT:  2.00D  GRAD.:    12.763 HEAT: -593.6533
 CYCLE:    34 TIME:   0.023 TIME LEFT:  2.00D  GRAD.:     7.029 HEAT: -593.7535
 CYCLE:    35 TIME:   0.027 TIME LEFT:  2.00D  GRAD.:     5.888 HEAT: -593.8885
 CYCLE:    36 TIME:   0.023 TIME LEFT:  2.00D  GRAD.:     9.533 HEAT: -594.0869
 CYCLE:    37 TIME:   0.035 TIME LEFT:  2.00D  GRAD.:     9.839 HEAT: -594.2217
 CYCLE:    38 TIME:   0.031 TIME LEFT:  2.00D  GRAD.:     8.161 HEAT: -594.4183
 CYCLE:    39 TIME:   0.027 TIME LEFT:  2.00D  GRAD.:     7.236 HEAT: -594.6019
 CYCLE:    40 TIME:   0.023 TIME LEFT:  2.00D  GRAD.:     4.206 HEAT: -594.6593
 CYCLE:    41 TIME:   0.023 TIME LEFT:  2.00D  GRAD.:     3.013 HEAT: -594.7052
 CYCLE:    42 TIME:   0.027 TIME LEFT:  2.00D  GRAD.:     2.478 HEAT: -594.7222
 CYCLE:    43 TIME:   0.023 TIME LEFT:  2.00D  GRAD.:     2.238 HEAT: -594.7367
 CYCLE:    44 TIME:   0.027 TIME LEFT:  2.00D  GRAD.:     2.351 HEAT: -594.7367
 CYCLE:    45 TIME:   0.023 TIME LEFT:  2.00D  GRAD.:     2.211 HEAT: -594.7382
 CYCLE:    46 TIME:   0.023 TIME LEFT:  2.00D  GRAD.:     1.797 HEAT: -594.7460
 CYCLE:    47 TIME:   0.027 TIME LEFT:  2.00D  GRAD.:     1.198 HEAT: -594.7556
 CYCLE:    48 TIME:   0.023 TIME LEFT:  2.00D  GRAD.:     0.605 HEAT: -594.7772
 CYCLE:    49 TIME:   0.023 TIME LEFT:  2.00D  GRAD.:     0.487 HEAT: -594.7754
 CYCLE:    50 TIME:   0.023 TIME LEFT:  2.00D  GRAD.:     0.294 HEAT: -594.7748
 CYCLE:    51 TIME:   0.031 TIME LEFT:  2.00D  GRAD.:     0.365 HEAT: -594.7660
 CYCLE:    52 TIME:   0.027 TIME LEFT:  2.00D  GRAD.:     1.206 HEAT: -594.7734
 CYCLE:    53 TIME:   0.023 TIME LEFT:  2.00D  GRAD.:     0.323 HEAT: -594.7671
 CYCLE:    54 TIME:   0.027 TIME LEFT:  2.00D  GRAD.:     0.256 HEAT: -594.7673
 CYCLE:    55 TIME:   0.031 TIME LEFT:  2.00D  GRAD.:     0.275 HEAT: -594.7762
 CYCLE:    56 TIME:   0.027 TIME LEFT:  2.00D  GRAD.:     0.310 HEAT: -594.7770
 CYCLE:    57 TIME:   0.031 TIME LEFT:  2.00D  GRAD.:     0.494 HEAT: -594.7855
 CYCLE:    58 TIME:   0.082 TIME LEFT:  2.00D  GRAD.:     0.498 HEAT: -594.7958
 CYCLE:    59 TIME:   0.078 TIME LEFT:  2.00D  GRAD.:     0.438 HEAT: -594.7902
 CYCLE:    60 TIME:   0.039 TIME LEFT:  2.00D  GRAD.:     0.339 HEAT: -594.7903
 CYCLE:    61 TIME:   0.039 TIME LEFT:  2.00D  GRAD.:     0.284 HEAT: -594.7908
 CYCLE:    62 TIME:   0.074 TIME LEFT:  2.00D  GRAD.:     0.205 HEAT: -594.7930
 CYCLE:    63 TIME:   0.102 TIME LEFT:  2.00D  GRAD.:     0.179 HEAT: -594.7887
 CYCLE:    64 TIME:   0.121 TIME LEFT:  2.00D  GRAD.:     0.156 HEAT: -594.7887

     TRUST RADIUS NOW LESS THAN  0.00010 OPTIMIZATION TERMINATING
      THE GEOMETRY MAY NOT BE COMPLETELY OPTIMIZED
      (TO CONTINUE, ADD 'LET DDMIN=0.0' TO THE KEYWORD LINE)

 -------------------------------------------------------------------------------
 PM6 xyz gnorm=0.01 eps=78.4
 e-3-tio2-p.xyz



     GEOMETRY OPTIMISED USING EIGENVECTOR FOLLOWING (EF).     
     SCF FIELD WAS ACHIEVED                                   


                              PM6 CALCULATION
                                                       MOPAC2016 (Version: 20.323L)
                                                       Mon Jun  7 16:36:58 2021
                                                       No. of days remaining = 165




          FINAL HEAT OF FORMATION =       -594.79583 KCAL/MOL =   -2488.62577 KJ/MOL
          VAN DER WAALS AREA      =        196.94 SQUARE ANGSTROMS


          TOTAL ENERGY            =      -2285.76536 EV
          ELECTRONIC ENERGY       =      -1872.94107 EV  POINT GROUP:     C2v 
          CORE-CORE REPULSION     =       -412.82428 EV

          DIELECTRIC ENERGY       =         -1.49313 EV
          COSMO AREA              =        196.94 SQUARE ANGSTROMS
          COSMO VOLUME            =        210.69 CUBIC ANGSTROMS

          GRADIENT NORM           =          0.49774 = 0.14369 PER ATOM
          IONIZATION POTENTIAL    =         12.135777 EV
          HOMO LUMO ENERGIES (EV) =        -12.136 -2.782
          NO. OF FILLED LEVELS    =         28
          MOLECULAR WEIGHT        =        257.7116

          MOLECULAR DIMENSIONS (Angstroms)

            Atom       Atom       Distance
            H    10    O     7     8.88091
            H    12    O     3     5.02175
            O     5    O     6     2.66060


          SCF CALCULATIONS        =         90
 
          WALL-CLOCK TIME         =          2.512 SECONDS
          COMPUTATION TIME        =          9.935 SECONDS




   ATOM   CHEMICAL          X               Y               Z
  NUMBER   SYMBOL      (ANGSTROMS)     (ANGSTROMS)     (ANGSTROMS)
 
     1      Ti          1.01246070  *   1.27299663  *  -0.00146939  *
     2      Ti          3.73972721  *   1.21204644  *  -0.05736462  *
     3       O          2.46234489  *  -0.09207175  *  -0.18835704  *
     4       O          2.52912645  *   2.57003855  *   0.12513254  *
     5       O         -0.17058488  *   1.14690325  *   1.34579199  *
     6       O         -0.21942114  *   1.48817982  *  -1.29253390  *
     7       O          5.39957998  *   1.17127936  *  -0.04669613  *
     8      Ti         -1.73502577  *   1.37386531  *   0.06290431  *
     9       O         -2.69835920  *  -0.08425045  *  -0.11378123  *
    10       H         -3.24127969  *  -0.87319239  *  -0.20844479  *
    11       O         -2.59365759  *   2.88934381  *   0.29184178  *
    12       H         -3.08573185  *   3.70663135  *   0.41966067  *

                             CARTESIAN COORDINATES

   1   Ti        1.012460701     1.272996630    -0.001469386
   2   Ti        3.739727213     1.212046440    -0.057364618
   3    O        2.462344890    -0.092071748    -0.188357037
   4    O        2.529126451     2.570038548     0.125132544
   5    O       -0.170584876     1.146903255     1.345791989
   6    O       -0.219421137     1.488179818    -1.292533899
   7    O        5.399579982     1.171279356    -0.046696134
   8   Ti       -1.735025774     1.373865312     0.062904313
   9    O       -2.698359204    -0.084250448    -0.113781227
  10    H       -3.241279691    -0.873192385    -0.208444795
  11    O       -2.593657587     2.889343806     0.291841777
  12    H       -3.085731848     3.706631345     0.419660675


           Empirical Formula: H2 O7 Ti3  =    12 atoms



      MOLECULAR POINT GROUP   :   C2v 


                  EIGENVALUES  
 -31.01267 -30.21790 -29.88737 -29.75971 -28.82684 -27.09030 -26.02461 -18.85051
 -18.53596 -16.03216 -15.85290 -15.82857 -15.54709 -15.41250 -15.07306 -14.96326
 -14.93504 -14.63826 -14.57480 -14.36944 -14.06213 -13.83549 -13.55172 -13.04307
 -13.00796 -12.61563 -12.24425 -12.13578  -2.78218  -2.73293  -2.57142  -2.31326
  -2.16903  -1.50327  -1.38455  -0.94366  -0.82649  -0.50845  -0.49366  -0.46607
  -0.37299   0.36996   0.42447   0.80790   0.95425   1.83005   4.29893   4.37721
   4.44169   4.90944   5.20356   5.41819   5.48238   5.73827   5.90401   6.10873
   6.35828


              NET ATOMIC CHARGES AND DIPOLE CONTRIBUTIONS

  ATOM NO.   TYPE          CHARGE      No. of ELECS.   s-Pop       p-Pop       d-Pop       
    1         Ti           1.018683        2.9813     0.01960     0.70460     2.25711
    2         Ti           0.940547        3.0595     0.05102     0.69125     2.31718
    3          O          -0.573014        6.5730     1.69046     4.88256
    4          O          -0.568349        6.5683     1.69008     4.87827
    5          O          -0.565324        6.5653     1.69853     4.86679
    6          O          -0.564614        6.5646     1.69856     4.86606
    7          O          -0.687784        6.6878     1.72306     4.96473
    8         Ti           1.070542        2.9295     0.00952     0.71670     2.20323
    9          O          -0.433561        6.4336     1.62785     4.80571
   10          H           0.398681        0.6013     0.60132
   11          O          -0.434490        6.4345     1.62794     4.80655
   12          H           0.398684        0.6013     0.60132
 DIPOLE           X         Y         Z       TOTAL
 POINT-CHG.   -18.618     0.558     0.272    18.628
 HYBRID         0.631    -0.040    -0.075     0.637
 SUM          -17.986     0.518     0.196    17.995


          ATOMIC ORBITAL ELECTRON POPULATIONS

     Atom    s        px        py        pz      x^2-y^2     xz        z^2       yz        xy
    1 Ti   0.01960   0.24869   0.23347   0.22245   0.37286   0.47278   0.47685   0.42713   0.50750
    2 Ti   0.05102   0.26121   0.25067   0.17937   0.49622   0.59632   0.28067   0.37071   0.57325
    3  O   1.69046   1.61029   1.72703   1.54523
    4  O   1.69008   1.60542   1.72852   1.54432
    5  O   1.69853   1.60133   1.56801   1.69745
    6  O   1.69856   1.60446   1.56837   1.69324
    7  O   1.72306   1.83474   1.61681   1.51318
    8 Ti   0.00952   0.24854   0.24208   0.22608   0.49728   0.46600   0.33534   0.45757   0.44705
    9  O   1.62785   1.62767   1.52039   1.65765
   10  H   0.60132
   11  O   1.62794   1.64379   1.50666   1.65610
   12  H   0.60132

 **********************
 *                    *
 * JOB ENDED NORMALLY *
 *                    *
 **********************



 TOTAL JOB TIME:             2.51 SECONDS

 == MOPAC DONE ==
