alendronate-2-opt-g09.log                                               
SP        RB3LYP                                                      6-31G(d,p)          
Number of atoms                            I               27
Info1-9                                    I   N=           9
          38          38           0           0           0         111
           1          18        -502
Full Title                                 C   N=           3
alendronate-2-opt-g09.log           
Route                                      C   N=           6
#P B3LYP/6-31G(d,p) # Pop=chelp # Gfinput IOP(6/7=3) Density
 Test       
Charge                                     I                0
Multiplicity                               I                1
Number of electrons                        I              130
Number of alpha electrons                  I               65
Number of beta electrons                   I               65
Number of basis functions                  I              283
Number of independent functions            I              283
Number of point charges in /Mol/           I                0
Number of translation vectors              I                0
Atomic numbers                             I   N=          27
           6           8           1          15          15           8
           1           8           1           8           1           8
           1           8           8           6           6           1
           1           6           1           1           1           1
           7           1           1
Nuclear charges                            R   N=          27
  6.00000000E+00  8.00000000E+00  1.00000000E+00  1.50000000E+01  1.50000000E+01
  8.00000000E+00  1.00000000E+00  8.00000000E+00  1.00000000E+00  8.00000000E+00
  1.00000000E+00  8.00000000E+00  1.00000000E+00  8.00000000E+00  8.00000000E+00
  6.00000000E+00  6.00000000E+00  1.00000000E+00  1.00000000E+00  6.00000000E+00
  1.00000000E+00  1.00000000E+00  1.00000000E+00  1.00000000E+00  7.00000000E+00
  1.00000000E+00  1.00000000E+00
Current cartesian coordinates              R   N=          81
 -2.39862764E-01 -3.30851129E-01 -7.42604367E-01  3.22388334E-02 -5.17971907E-01
 -3.39836877E+00 -1.48555117E+00  1.19357668E-01 -4.19717490E+00 -3.08649015E+00
 -2.12355770E+00  3.28605784E-01 -7.02126361E-01  3.05096511E+00  2.27259772E-01
 -5.23559985E+00 -1.46946603E+00 -1.72679263E+00 -5.57784750E+00  3.43386161E-01
 -1.69117129E+00 -2.60194652E+00 -5.05584590E+00 -2.99217926E-01 -2.73662766E+00
 -6.06342892E+00  1.22312654E+00 -1.30661199E+00  2.95258619E+00  3.18522918E+00
 -2.32636544E+00  1.44630476E+00  3.64156024E+00 -3.45264148E+00  3.48354330E+00
 -1.23060724E+00 -3.66927905E+00  5.25448132E+00 -1.64897371E+00  1.19325073E+00
  4.96191219E+00 -5.18388362E-01 -3.69167474E+00 -1.57782347E+00  3.04323516E+00
  2.14060593E+00 -1.47527012E+00  4.89629347E-01  4.64400214E+00 -2.93096146E-01
 -3.80816300E-01  2.13973593E+00 -3.49408344E+00  2.37740629E-02  1.94758936E+00
 -1.32116289E+00  2.54646395E+00  6.91694532E+00 -1.69706898E+00  7.28490729E-01
  4.72841618E+00 -3.63242809E-01 -2.44883808E+00  4.74944957E+00  1.70043260E+00
  1.50329021E-01  6.84902860E+00 -1.58899552E+00  2.79932821E+00  6.76877117E+00
 -3.72587890E+00  2.41394923E-01  9.27539954E+00 -5.06126626E-01 -9.70361282E-02
  1.07787519E+01 -1.40595805E+00  6.92982775E-01  9.46911529E+00 -7.07193555E-01
 -2.00044387E+00
Number of symbols in /Mol/                 I                0
Force Field                                I                0
Atom Types                                 C   N=          27
                                                            
                                                            
                                                            
                                                            
                                                            
                        
Int Atom Types                             I   N=          27
           0           0           0           0           0           0
           0           0           0           0           0           0
           0           0           0           0           0           0
           0           0           0           0           0           0
           0           0           0
MM charges                                 R   N=          27
  0.00000000E+00  0.00000000E+00  0.00000000E+00  0.00000000E+00  0.00000000E+00
  0.00000000E+00  0.00000000E+00  0.00000000E+00  0.00000000E+00  0.00000000E+00
  0.00000000E+00  0.00000000E+00  0.00000000E+00  0.00000000E+00  0.00000000E+00
  0.00000000E+00  0.00000000E+00  0.00000000E+00  0.00000000E+00  0.00000000E+00
  0.00000000E+00  0.00000000E+00  0.00000000E+00  0.00000000E+00  0.00000000E+00
  0.00000000E+00  0.00000000E+00
Integer atomic weights                     I   N=          27
          12          16           1          31          31          16
           1          16           1          16           1          16
           1          16          16          12          12           1
           1          12           1           1           1           1
          14           1           1
Real atomic weights                        R   N=          27
  1.20000000E+01  1.59949146E+01  1.00782504E+00  3.09737634E+01  3.09737634E+01
  1.59949146E+01  1.00782504E+00  1.59949146E+01  1.00782504E+00  1.59949146E+01
  1.00782504E+00  1.59949146E+01  1.00782504E+00  1.59949146E+01  1.59949146E+01
  1.20000000E+01  1.20000000E+01  1.00782504E+00  1.00782504E+00  1.20000000E+01
  1.00782504E+00  1.00782504E+00  1.00782504E+00  1.00782504E+00  1.40030740E+01
  1.00782504E+00  1.00782504E+00
Atom fragment info                         I   N=          27
           0           0           0           0           0           0
           0           0           0           0           0           0
           0           0           0           0           0           0
           0           0           0           0           0           0
           0           0           0
Atom residue num                           I   N=          27
           0           0           0           0           0           0
           0           0           0           0           0           0
           0           0           0           0           0           0
           0           0           0           0           0           0
           0           0           0
Nuclear spins                              I   N=          27
           0           0           1           1           1           0
           1           0           1           0           1           0
           1           0           0           0           0           1
           1           0           1           1           1           1
           2           1           1
Nuclear ZEff                               R   N=          27
 -3.60000000E+00 -5.60000000E+00 -1.00000000E+00 -1.29400000E+01 -1.29400000E+01
 -5.60000000E+00 -1.00000000E+00 -5.60000000E+00 -1.00000000E+00 -5.60000000E+00
 -1.00000000E+00 -5.60000000E+00 -1.00000000E+00 -5.60000000E+00 -5.60000000E+00
 -3.60000000E+00 -3.60000000E+00 -1.00000000E+00 -1.00000000E+00 -3.60000000E+00
 -1.00000000E+00 -1.00000000E+00 -1.00000000E+00 -1.00000000E+00 -4.55000000E+00
 -1.00000000E+00 -1.00000000E+00
Nuclear ZNuc                               R   N=          27
  6.00000000E+00  8.00000000E+00  1.00000000E+00  1.50000000E+01  1.50000000E+01
  8.00000000E+00  1.00000000E+00  8.00000000E+00  1.00000000E+00  8.00000000E+00
  1.00000000E+00  8.00000000E+00  1.00000000E+00  8.00000000E+00  8.00000000E+00
  6.00000000E+00  6.00000000E+00  1.00000000E+00  1.00000000E+00  6.00000000E+00
  1.00000000E+00  1.00000000E+00  1.00000000E+00  1.00000000E+00  7.00000000E+00
  1.00000000E+00  1.00000000E+00
Nuclear QMom                               R   N=          27
  0.00000000E+00  0.00000000E+00  0.00000000E+00  0.00000000E+00  0.00000000E+00
  0.00000000E+00  0.00000000E+00  0.00000000E+00  0.00000000E+00  0.00000000E+00
  0.00000000E+00  0.00000000E+00  0.00000000E+00  0.00000000E+00  0.00000000E+00
  0.00000000E+00  0.00000000E+00  0.00000000E+00  0.00000000E+00  0.00000000E+00
  0.00000000E+00  0.00000000E+00  0.00000000E+00  0.00000000E+00  2.04400000E+00
  0.00000000E+00  0.00000000E+00
Nuclear GFac                               R   N=          27
  0.00000000E+00  0.00000000E+00  2.79284600E+00  1.13160000E+00  1.13160000E+00
  0.00000000E+00  2.79284600E+00  0.00000000E+00  2.79284600E+00  0.00000000E+00
  2.79284600E+00  0.00000000E+00  2.79284600E+00  0.00000000E+00  0.00000000E+00
  0.00000000E+00  0.00000000E+00  2.79284600E+00  2.79284600E+00  0.00000000E+00
  2.79284600E+00  2.79284600E+00  2.79284600E+00  2.79284600E+00  4.03761000E-01
  2.79284600E+00  2.79284600E+00
MicOpt                                     I   N=          27
          -1          -1          -1          -1          -1          -1
          -1          -1          -1          -1          -1          -1
          -1          -1          -1          -1          -1          -1
          -1          -1          -1          -1          -1          -1
          -1          -1          -1
Number of residues                         I                0
Number of secondary structures             I                0
SymInf integers                            I   N=          26
           1           1           1           1           1           0
           0           0           0           0           0           0
           0           0           0           0           0           0
           0           0           0           0           0           0
           0           0
RotTr to input orientation                 R   N=          12
 -1.00000000E+00  3.57163887E-07  0.00000000E+00  3.57163887E-07  1.00000000E+00
 -0.00000000E+00  0.00000000E+00  0.00000000E+00 -1.00000000E+00  2.90727096E-07
 -2.03508967E-06  1.30827193E-06
Number of contracted shells                I               97
Number of primitive shells                 I              231
Pure/Cartesian d shells                    I                1
Pure/Cartesian f shells                    I                0
Highest angular momentum                   I                2
Largest degree of contraction              I                6
Shell types                                I   N=          97
           0          -1          -1           2           0          -1
          -1           2           0           0           1           0
          -1          -1          -1           2           0          -1
          -1          -1           2           0          -1          -1
           2           0           0           1           0          -1
          -1           2           0           0           1           0
          -1          -1           2           0           0           1
           0          -1          -1           2           0           0
           1           0          -1          -1           2           0
          -1          -1           2           0          -1          -1
           2           0          -1          -1           2           0
           0           1           0           0           1           0
          -1          -1           2           0           0           1
           0           0           1           0           0           1
           0           0           1           0          -1          -1
           2           0           0           1           0           0
           1
Number of primitives per shell             I   N=          97
           6           3           1           1           6           3
           1           1           3           1           1           6
           6           3           1           1           6           6
           3           1           1           6           3           1
           1           3           1           1           6           3
           1           1           3           1           1           6
           3           1           1           3           1           1
           6           3           1           1           3           1
           1           6           3           1           1           6
           3           1           1           6           3           1
           1           6           3           1           1           3
           1           1           3           1           1           6
           3           1           1           3           1           1
           3           1           1           3           1           1
           3           1           1           6           3           1
           1           3           1           1           3           1
           1
Shell to atom map                          I   N=          97
           1           1           1           1           2           2
           2           2           3           3           3           4
           4           4           4           4           5           5
           5           5           5           6           6           6
           6           7           7           7           8           8
           8           8           9           9           9          10
          10          10          10          11          11          11
          12          12          12          12          13          13
          13          14          14          14          14          15
          15          15          15          16          16          16
          16          17          17          17          17          18
          18          18          19          19          19          20
          20          20          20          21          21          21
          22          22          22          23          23          23
          24          24          24          25          25          25
          25          26          26          26          27          27
          27
Primitive exponents                        R   N=         231
  3.04752488E+03  4.57369518E+02  1.03948685E+02  2.92101553E+01  9.28666296E+00
  3.16392696E+00  7.86827235E+00  1.88128854E+00  5.44249258E-01  1.68714478E-01
  8.00000000E-01  5.48467166E+03  8.25234946E+02  1.88046958E+02  5.29645000E+01
  1.68975704E+01  5.79963534E+00  1.55396162E+01  3.59993359E+00  1.01376175E+00
  2.70005823E-01  8.00000000E-01  1.87311370E+01  2.82539436E+00  6.40121692E-01
  1.61277759E-01  1.10000000E+00  1.94133000E+04  2.90942000E+03  6.61364000E+02
  1.85759000E+02  5.91943000E+01  2.00310000E+01  3.39478000E+02  8.10101000E+01
  2.58780000E+01  9.45221000E+00  3.66566000E+00  1.46746000E+00  2.15623000E+00
  7.48997000E-01  2.83145000E-01  9.98317000E-02  5.50000000E-01  1.94133000E+04
  2.90942000E+03  6.61364000E+02  1.85759000E+02  5.91943000E+01  2.00310000E+01
  3.39478000E+02  8.10101000E+01  2.58780000E+01  9.45221000E+00  3.66566000E+00
  1.46746000E+00  2.15623000E+00  7.48997000E-01  2.83145000E-01  9.98317000E-02
  5.50000000E-01  5.48467166E+03  8.25234946E+02  1.88046958E+02  5.29645000E+01
  1.68975704E+01  5.79963534E+00  1.55396162E+01  3.59993359E+00  1.01376175E+00
  2.70005823E-01  8.00000000E-01  1.87311370E+01  2.82539436E+00  6.40121692E-01
  1.61277759E-01  1.10000000E+00  5.48467166E+03  8.25234946E+02  1.88046958E+02
  5.29645000E+01  1.68975704E+01  5.79963534E+00  1.55396162E+01  3.59993359E+00
  1.01376175E+00  2.70005823E-01  8.00000000E-01  1.87311370E+01  2.82539436E+00
  6.40121692E-01  1.61277759E-01  1.10000000E+00  5.48467166E+03  8.25234946E+02
  1.88046958E+02  5.29645000E+01  1.68975704E+01  5.79963534E+00  1.55396162E+01
  3.59993359E+00  1.01376175E+00  2.70005823E-01  8.00000000E-01  1.87311370E+01
  2.82539436E+00  6.40121692E-01  1.61277759E-01  1.10000000E+00  5.48467166E+03
  8.25234946E+02  1.88046958E+02  5.29645000E+01  1.68975704E+01  5.79963534E+00
  1.55396162E+01  3.59993359E+00  1.01376175E+00  2.70005823E-01  8.00000000E-01
  1.87311370E+01  2.82539436E+00  6.40121692E-01  1.61277759E-01  1.10000000E+00
  5.48467166E+03  8.25234946E+02  1.88046958E+02  5.29645000E+01  1.68975704E+01
  5.79963534E+00  1.55396162E+01  3.59993359E+00  1.01376175E+00  2.70005823E-01
  8.00000000E-01  5.48467166E+03  8.25234946E+02  1.88046958E+02  5.29645000E+01
  1.68975704E+01  5.79963534E+00  1.55396162E+01  3.59993359E+00  1.01376175E+00
  2.70005823E-01  8.00000000E-01  3.04752488E+03  4.57369518E+02  1.03948685E+02
  2.92101553E+01  9.28666296E+00  3.16392696E+00  7.86827235E+00  1.88128854E+00
  5.44249258E-01  1.68714478E-01  8.00000000E-01  3.04752488E+03  4.57369518E+02
  1.03948685E+02  2.92101553E+01  9.28666296E+00  3.16392696E+00  7.86827235E+00
  1.88128854E+00  5.44249258E-01  1.68714478E-01  8.00000000E-01  1.87311370E+01
  2.82539436E+00  6.40121692E-01  1.61277759E-01  1.10000000E+00  1.87311370E+01
  2.82539436E+00  6.40121692E-01  1.61277759E-01  1.10000000E+00  3.04752488E+03
  4.57369518E+02  1.03948685E+02  2.92101553E+01  9.28666296E+00  3.16392696E+00
  7.86827235E+00  1.88128854E+00  5.44249258E-01  1.68714478E-01  8.00000000E-01
  1.87311370E+01  2.82539436E+00  6.40121692E-01  1.61277759E-01  1.10000000E+00
  1.87311370E+01  2.82539436E+00  6.40121692E-01  1.61277759E-01  1.10000000E+00
  1.87311370E+01  2.82539436E+00  6.40121692E-01  1.61277759E-01  1.10000000E+00
  1.87311370E+01  2.82539436E+00  6.40121692E-01  1.61277759E-01  1.10000000E+00
  4.17351146E+03  6.27457911E+02  1.42902093E+02  4.02343293E+01  1.28202129E+01
  4.39043701E+00  1.16263619E+01  2.71627981E+00  7.72218397E-01  2.12031498E-01
  8.00000000E-01  1.87311370E+01  2.82539436E+00  6.40121692E-01  1.61277759E-01
  1.10000000E+00  1.87311370E+01  2.82539436E+00  6.40121692E-01  1.61277759E-01
  1.10000000E+00
Contraction coefficients                   R   N=         231
  1.83473713E-03  1.40373228E-02  6.88426223E-02  2.32184443E-01  4.67941348E-01
  3.62311985E-01 -1.19332420E-01 -1.60854152E-01  1.14345644E+00  1.00000000E+00
  1.00000000E+00  1.83107443E-03  1.39501722E-02  6.84450781E-02  2.32714336E-01
  4.70192898E-01  3.58520853E-01 -1.10777550E-01 -1.48026263E-01  1.13076702E+00
  1.00000000E+00  1.00000000E+00  3.34946043E-02  2.34726953E-01  8.13757326E-01
  1.00000000E+00  1.00000000E+00  1.85159892E-03  1.42061917E-02  6.99994593E-02
  2.40078860E-01  4.84761718E-01  3.35199805E-01 -2.78217010E-03 -3.60499014E-02
 -1.16631004E-01  9.68328036E-02  6.14418023E-01  4.03798015E-01 -2.52924114E-01
  3.28518447E-02  1.08125476E+00  1.00000000E+00  1.00000000E+00  1.85159892E-03
  1.42061917E-02  6.99994593E-02  2.40078860E-01  4.84761718E-01  3.35199805E-01
 -2.78217010E-03 -3.60499014E-02 -1.16631004E-01  9.68328036E-02  6.14418023E-01
  4.03798015E-01 -2.52924114E-01  3.28518447E-02  1.08125476E+00  1.00000000E+00
  1.00000000E+00  1.83107443E-03  1.39501722E-02  6.84450781E-02  2.32714336E-01
  4.70192898E-01  3.58520853E-01 -1.10777550E-01 -1.48026263E-01  1.13076702E+00
  1.00000000E+00  1.00000000E+00  3.34946043E-02  2.34726953E-01  8.13757326E-01
  1.00000000E+00  1.00000000E+00  1.83107443E-03  1.39501722E-02  6.84450781E-02
  2.32714336E-01  4.70192898E-01  3.58520853E-01 -1.10777550E-01 -1.48026263E-01
  1.13076702E+00  1.00000000E+00  1.00000000E+00  3.34946043E-02  2.34726953E-01
  8.13757326E-01  1.00000000E+00  1.00000000E+00  1.83107443E-03  1.39501722E-02
  6.84450781E-02  2.32714336E-01  4.70192898E-01  3.58520853E-01 -1.10777550E-01
 -1.48026263E-01  1.13076702E+00  1.00000000E+00  1.00000000E+00  3.34946043E-02
  2.34726953E-01  8.13757326E-01  1.00000000E+00  1.00000000E+00  1.83107443E-03
  1.39501722E-02  6.84450781E-02  2.32714336E-01  4.70192898E-01  3.58520853E-01
 -1.10777550E-01 -1.48026263E-01  1.13076702E+00  1.00000000E+00  1.00000000E+00
  3.34946043E-02  2.34726953E-01  8.13757326E-01  1.00000000E+00  1.00000000E+00
  1.83107443E-03  1.39501722E-02  6.84450781E-02  2.32714336E-01  4.70192898E-01
  3.58520853E-01 -1.10777550E-01 -1.48026263E-01  1.13076702E+00  1.00000000E+00
  1.00000000E+00  1.83107443E-03  1.39501722E-02  6.84450781E-02  2.32714336E-01
  4.70192898E-01  3.58520853E-01 -1.10777550E-01 -1.48026263E-01  1.13076702E+00
  1.00000000E+00  1.00000000E+00  1.83473713E-03  1.40373228E-02  6.88426223E-02
  2.32184443E-01  4.67941348E-01  3.62311985E-01 -1.19332420E-01 -1.60854152E-01
  1.14345644E+00  1.00000000E+00  1.00000000E+00  1.83473713E-03  1.40373228E-02
  6.88426223E-02  2.32184443E-01  4.67941348E-01  3.62311985E-01 -1.19332420E-01
 -1.60854152E-01  1.14345644E+00  1.00000000E+00  1.00000000E+00  3.34946043E-02
  2.34726953E-01  8.13757326E-01  1.00000000E+00  1.00000000E+00  3.34946043E-02
  2.34726953E-01  8.13757326E-01  1.00000000E+00  1.00000000E+00  1.83473713E-03
  1.40373228E-02  6.88426223E-02  2.32184443E-01  4.67941348E-01  3.62311985E-01
 -1.19332420E-01 -1.60854152E-01  1.14345644E+00  1.00000000E+00  1.00000000E+00
  3.34946043E-02  2.34726953E-01  8.13757326E-01  1.00000000E+00  1.00000000E+00
  3.34946043E-02  2.34726953E-01  8.13757326E-01  1.00000000E+00  1.00000000E+00
  3.34946043E-02  2.34726953E-01  8.13757326E-01  1.00000000E+00  1.00000000E+00
  3.34946043E-02  2.34726953E-01  8.13757326E-01  1.00000000E+00  1.00000000E+00
  1.83477216E-03  1.39946270E-02  6.85865518E-02  2.32240873E-01  4.69069948E-01
  3.60455199E-01 -1.14961182E-01 -1.69117479E-01  1.14585195E+00  1.00000000E+00
  1.00000000E+00  3.34946043E-02  2.34726953E-01  8.13757326E-01  1.00000000E+00
  1.00000000E+00  3.34946043E-02  2.34726953E-01  8.13757326E-01  1.00000000E+00
  1.00000000E+00
P(S=P) Contraction coefficients            R   N=         231
  0.00000000E+00  0.00000000E+00  0.00000000E+00  0.00000000E+00  0.00000000E+00
  0.00000000E+00  6.89990666E-02  3.16423961E-01  7.44308291E-01  1.00000000E+00
  0.00000000E+00  0.00000000E+00  0.00000000E+00  0.00000000E+00  0.00000000E+00
  0.00000000E+00  0.00000000E+00  7.08742682E-02  3.39752839E-01  7.27158577E-01
  1.00000000E+00  0.00000000E+00  0.00000000E+00  0.00000000E+00  0.00000000E+00
  0.00000000E+00  0.00000000E+00  0.00000000E+00  0.00000000E+00  0.00000000E+00
  0.00000000E+00  0.00000000E+00  0.00000000E+00  4.56461619E-03  3.36935719E-02
  1.39754883E-01  3.39361717E-01  4.50920624E-01  2.38585801E-01 -1.77653127E-02
  2.74058196E-01  7.85421563E-01  1.00000000E+00  0.00000000E+00  0.00000000E+00
  0.00000000E+00  0.00000000E+00  0.00000000E+00  0.00000000E+00  0.00000000E+00
  4.56461619E-03  3.36935719E-02  1.39754883E-01  3.39361717E-01  4.50920624E-01
  2.38585801E-01 -1.77653127E-02  2.74058196E-01  7.85421563E-01  1.00000000E+00
  0.00000000E+00  0.00000000E+00  0.00000000E+00  0.00000000E+00  0.00000000E+00
  0.00000000E+00  0.00000000E+00  7.08742682E-02  3.39752839E-01  7.27158577E-01
  1.00000000E+00  0.00000000E+00  0.00000000E+00  0.00000000E+00  0.00000000E+00
  0.00000000E+00  0.00000000E+00  0.00000000E+00  0.00000000E+00  0.00000000E+00
  0.00000000E+00  0.00000000E+00  0.00000000E+00  7.08742682E-02  3.39752839E-01
  7.27158577E-01  1.00000000E+00  0.00000000E+00  0.00000000E+00  0.00000000E+00
  0.00000000E+00  0.00000000E+00  0.00000000E+00  0.00000000E+00  0.00000000E+00
  0.00000000E+00  0.00000000E+00  0.00000000E+00  0.00000000E+00  7.08742682E-02
  3.39752839E-01  7.27158577E-01  1.00000000E+00  0.00000000E+00  0.00000000E+00
  0.00000000E+00  0.00000000E+00  0.00000000E+00  0.00000000E+00  0.00000000E+00
  0.00000000E+00  0.00000000E+00  0.00000000E+00  0.00000000E+00  0.00000000E+00
  7.08742682E-02  3.39752839E-01  7.27158577E-01  1.00000000E+00  0.00000000E+00
  0.00000000E+00  0.00000000E+00  0.00000000E+00  0.00000000E+00  0.00000000E+00
  0.00000000E+00  0.00000000E+00  0.00000000E+00  0.00000000E+00  0.00000000E+00
  0.00000000E+00  7.08742682E-02  3.39752839E-01  7.27158577E-01  1.00000000E+00
  0.00000000E+00  0.00000000E+00  0.00000000E+00  0.00000000E+00  0.00000000E+00
  0.00000000E+00  0.00000000E+00  7.08742682E-02  3.39752839E-01  7.27158577E-01
  1.00000000E+00  0.00000000E+00  0.00000000E+00  0.00000000E+00  0.00000000E+00
  0.00000000E+00  0.00000000E+00  0.00000000E+00  6.89990666E-02  3.16423961E-01
  7.44308291E-01  1.00000000E+00  0.00000000E+00  0.00000000E+00  0.00000000E+00
  0.00000000E+00  0.00000000E+00  0.00000000E+00  0.00000000E+00  6.89990666E-02
  3.16423961E-01  7.44308291E-01  1.00000000E+00  0.00000000E+00  0.00000000E+00
  0.00000000E+00  0.00000000E+00  0.00000000E+00  0.00000000E+00  0.00000000E+00
  0.00000000E+00  0.00000000E+00  0.00000000E+00  0.00000000E+00  0.00000000E+00
  0.00000000E+00  0.00000000E+00  0.00000000E+00  0.00000000E+00  0.00000000E+00
  6.89990666E-02  3.16423961E-01  7.44308291E-01  1.00000000E+00  0.00000000E+00
  0.00000000E+00  0.00000000E+00  0.00000000E+00  0.00000000E+00  0.00000000E+00
  0.00000000E+00  0.00000000E+00  0.00000000E+00  0.00000000E+00  0.00000000E+00
  0.00000000E+00  0.00000000E+00  0.00000000E+00  0.00000000E+00  0.00000000E+00
  0.00000000E+00  0.00000000E+00  0.00000000E+00  0.00000000E+00  0.00000000E+00
  0.00000000E+00  0.00000000E+00  0.00000000E+00  0.00000000E+00  0.00000000E+00
  0.00000000E+00  6.75797439E-02  3.23907296E-01  7.40895140E-01  1.00000000E+00
  0.00000000E+00  0.00000000E+00  0.00000000E+00  0.00000000E+00  0.00000000E+00
  0.00000000E+00  0.00000000E+00  0.00000000E+00  0.00000000E+00  0.00000000E+00
  0.00000000E+00
Coordinates of each shell                  R   N=         291
 -2.39862764E-01 -3.30851129E-01 -7.42604367E-01 -2.39862764E-01 -3.30851129E-01
 -7.42604367E-01 -2.39862764E-01 -3.30851129E-01 -7.42604367E-01 -2.39862764E-01
 -3.30851129E-01 -7.42604367E-01  3.22388334E-02 -5.17971907E-01 -3.39836877E+00
  3.22388334E-02 -5.17971907E-01 -3.39836877E+00  3.22388334E-02 -5.17971907E-01
 -3.39836877E+00  3.22388334E-02 -5.17971907E-01 -3.39836877E+00 -1.48555117E+00
  1.19357668E-01 -4.19717490E+00 -1.48555117E+00  1.19357668E-01 -4.19717490E+00
 -1.48555117E+00  1.19357668E-01 -4.19717490E+00 -3.08649015E+00 -2.12355770E+00
  3.28605784E-01 -3.08649015E+00 -2.12355770E+00  3.28605784E-01 -3.08649015E+00
 -2.12355770E+00  3.28605784E-01 -3.08649015E+00 -2.12355770E+00  3.28605784E-01
 -3.08649015E+00 -2.12355770E+00  3.28605784E-01 -7.02126361E-01  3.05096511E+00
  2.27259772E-01 -7.02126361E-01  3.05096511E+00  2.27259772E-01 -7.02126361E-01
  3.05096511E+00  2.27259772E-01 -7.02126361E-01  3.05096511E+00  2.27259772E-01
 -7.02126361E-01  3.05096511E+00  2.27259772E-01 -5.23559985E+00 -1.46946603E+00
 -1.72679263E+00 -5.23559985E+00 -1.46946603E+00 -1.72679263E+00 -5.23559985E+00
 -1.46946603E+00 -1.72679263E+00 -5.23559985E+00 -1.46946603E+00 -1.72679263E+00
 -5.57784750E+00  3.43386161E-01 -1.69117129E+00 -5.57784750E+00  3.43386161E-01
 -1.69117129E+00 -5.57784750E+00  3.43386161E-01 -1.69117129E+00 -2.60194652E+00
 -5.05584590E+00 -2.99217926E-01 -2.60194652E+00 -5.05584590E+00 -2.99217926E-01
 -2.60194652E+00 -5.05584590E+00 -2.99217926E-01 -2.60194652E+00 -5.05584590E+00
 -2.99217926E-01 -2.73662766E+00 -6.06342892E+00  1.22312654E+00 -2.73662766E+00
 -6.06342892E+00  1.22312654E+00 -2.73662766E+00 -6.06342892E+00  1.22312654E+00
 -1.30661199E+00  2.95258619E+00  3.18522918E+00 -1.30661199E+00  2.95258619E+00
  3.18522918E+00 -1.30661199E+00  2.95258619E+00  3.18522918E+00 -1.30661199E+00
  2.95258619E+00  3.18522918E+00 -2.32636544E+00  1.44630476E+00  3.64156024E+00
 -2.32636544E+00  1.44630476E+00  3.64156024E+00 -2.32636544E+00  1.44630476E+00
  3.64156024E+00 -3.45264148E+00  3.48354330E+00 -1.23060724E+00 -3.45264148E+00
  3.48354330E+00 -1.23060724E+00 -3.45264148E+00  3.48354330E+00 -1.23060724E+00
 -3.45264148E+00  3.48354330E+00 -1.23060724E+00 -3.66927905E+00  5.25448132E+00
 -1.64897371E+00 -3.66927905E+00  5.25448132E+00 -1.64897371E+00 -3.66927905E+00
  5.25448132E+00 -1.64897371E+00  1.19325073E+00  4.96191219E+00 -5.18388362E-01
  1.19325073E+00  4.96191219E+00 -5.18388362E-01  1.19325073E+00  4.96191219E+00
 -5.18388362E-01  1.19325073E+00  4.96191219E+00 -5.18388362E-01 -3.69167474E+00
 -1.57782347E+00  3.04323516E+00 -3.69167474E+00 -1.57782347E+00  3.04323516E+00
 -3.69167474E+00 -1.57782347E+00  3.04323516E+00 -3.69167474E+00 -1.57782347E+00
  3.04323516E+00  2.14060593E+00 -1.47527012E+00  4.89629347E-01  2.14060593E+00
 -1.47527012E+00  4.89629347E-01  2.14060593E+00 -1.47527012E+00  4.89629347E-01
  2.14060593E+00 -1.47527012E+00  4.89629347E-01  4.64400214E+00 -2.93096146E-01
 -3.80816300E-01  4.64400214E+00 -2.93096146E-01 -3.80816300E-01  4.64400214E+00
 -2.93096146E-01 -3.80816300E-01  4.64400214E+00 -2.93096146E-01 -3.80816300E-01
  2.13973593E+00 -3.49408344E+00  2.37740629E-02  2.13973593E+00 -3.49408344E+00
  2.37740629E-02  2.13973593E+00 -3.49408344E+00  2.37740629E-02  1.94758936E+00
 -1.32116289E+00  2.54646395E+00  1.94758936E+00 -1.32116289E+00  2.54646395E+00
  1.94758936E+00 -1.32116289E+00  2.54646395E+00  6.91694532E+00 -1.69706898E+00
  7.28490729E-01  6.91694532E+00 -1.69706898E+00  7.28490729E-01  6.91694532E+00
 -1.69706898E+00  7.28490729E-01  6.91694532E+00 -1.69706898E+00  7.28490729E-01
  4.72841618E+00 -3.63242809E-01 -2.44883808E+00  4.72841618E+00 -3.63242809E-01
 -2.44883808E+00  4.72841618E+00 -3.63242809E-01 -2.44883808E+00  4.74944957E+00
  1.70043260E+00  1.50329021E-01  4.74944957E+00  1.70043260E+00  1.50329021E-01
  4.74944957E+00  1.70043260E+00  1.50329021E-01  6.84902860E+00 -1.58899552E+00
  2.79932821E+00  6.84902860E+00 -1.58899552E+00  2.79932821E+00  6.84902860E+00
 -1.58899552E+00  2.79932821E+00  6.76877117E+00 -3.72587890E+00  2.41394923E-01
  6.76877117E+00 -3.72587890E+00  2.41394923E-01  6.76877117E+00 -3.72587890E+00
  2.41394923E-01  9.27539954E+00 -5.06126626E-01 -9.70361282E-02  9.27539954E+00