 Entering Gaussian System, Link 0=g16
 Input=alendronate_cation_scf_g09.com
 Output=alendronate_cation_scf_g09.log
 Initial command:
 /usr/local//g16/l1.exe "/home/orison/scrgauss/Gau-21235.inp" -scrdir="/home/orison/scrgauss/"
 Entering Link 1 = /usr/local//g16/l1.exe PID=     21237.
  
 Copyright (c) 1988,1990,1992,1993,1995,1998,2003,2009,2016,
            Gaussian, Inc.  All Rights Reserved.
  
 This is part of the Gaussian(R) 16 program.  It is based on
 the Gaussian(R) 09 system (copyright 2009, Gaussian, Inc.),
 the Gaussian(R) 03 system (copyright 2003, Gaussian, Inc.),
 the Gaussian(R) 98 system (copyright 1998, Gaussian, Inc.),
 the Gaussian(R) 94 system (copyright 1995, Gaussian, Inc.),
 the Gaussian 92(TM) system (copyright 1992, Gaussian, Inc.),
 the Gaussian 90(TM) system (copyright 1990, Gaussian, Inc.),
 the Gaussian 88(TM) system (copyright 1988, Gaussian, Inc.),
 the Gaussian 86(TM) system (copyright 1986, Carnegie Mellon
 University), and the Gaussian 82(TM) system (copyright 1983,
 Carnegie Mellon University). Gaussian is a federally registered
 trademark of Gaussian, Inc.
  
 This software contains proprietary and confidential information,
 including trade secrets, belonging to Gaussian, Inc.
  
 This software is provided under written license and may be
 used, copied, transmitted, or stored only in accord with that
 written license.
  
 The following legend is applicable only to US Government
 contracts under FAR:
  
                    RESTRICTED RIGHTS LEGEND
  
 Use, reproduction and disclosure by the US Government is
 subject to restrictions as set forth in subparagraphs (a)
 and (c) of the Commercial Computer Software - Restricted
 Rights clause in FAR 52.227-19.
  
 Gaussian, Inc.
 340 Quinnipiac St., Bldg. 40, Wallingford CT 06492
  
  
 ---------------------------------------------------------------
 Warning -- This program may not be used in any manner that
 competes with the business of Gaussian, Inc. or will provide
 assistance to any competitor of Gaussian, Inc.  The licensee
 of this program is prohibited from giving any competitor of
 Gaussian, Inc. access to this program.  By using this program,
 the user acknowledges that Gaussian, Inc. is engaged in the
 business of creating and licensing software in the field of
 computational chemistry and represents and warrants to the
 licensee that it is not a competitor of Gaussian, Inc. and that
 it will not use this program in any manner prohibited above.
 ---------------------------------------------------------------
  

 Cite this work as:
 Gaussian 16, Revision A.03,
 M. J. Frisch, G. W. Trucks, H. B. Schlegel, G. E. Scuseria, 
 M. A. Robb, J. R. Cheeseman, G. Scalmani, V. Barone, 
 G. A. Petersson, H. Nakatsuji, X. Li, M. Caricato, A. V. Marenich, 
 J. Bloino, B. G. Janesko, R. Gomperts, B. Mennucci, H. P. Hratchian, 
 J. V. Ortiz, A. F. Izmaylov, J. L. Sonnenberg, D. Williams-Young, 
 F. Ding, F. Lipparini, F. Egidi, J. Goings, B. Peng, A. Petrone, 
 T. Henderson, D. Ranasinghe, V. G. Zakrzewski, J. Gao, N. Rega, 
 G. Zheng, W. Liang, M. Hada, M. Ehara, K. Toyota, R. Fukuda, 
 J. Hasegawa, M. Ishida, T. Nakajima, Y. Honda, O. Kitao, H. Nakai, 
 T. Vreven, K. Throssell, J. A. Montgomery, Jr., J. E. Peralta, 
 F. Ogliaro, M. J. Bearpark, J. J. Heyd, E. N. Brothers, K. N. Kudin, 
 V. N. Staroverov, T. A. Keith, R. Kobayashi, J. Normand, 
 K. Raghavachari, A. P. Rendell, J. C. Burant, S. S. Iyengar, 
 J. Tomasi, M. Cossi, J. M. Millam, M. Klene, C. Adamo, R. Cammi, 
 J. W. Ochterski, R. L. Martin, K. Morokuma, O. Farkas, 
 J. B. Foresman, and D. J. Fox, Gaussian, Inc., Wallingford CT, 2016.
 
 ******************************************
 Gaussian 16:  EM64L-G16RevA.03 25-Dec-2016
                22-Jan-2021 
 ******************************************
 %nproc=8
 Will use up to    8 processors via shared memory.
 %Mem=4GB
 ----------------------------------------------------------------------
 #t B3LYP/6-31G(d,p) # Gfinput IOP(6/7=3) Pop=hirshfeld Density Test # 
 Units(Ang,Deg)
 ----------------------------------------------------------------------
 -------------------------
 alendronate-2-opt-g09.log
 -------------------------
 Symbolic Z-matrix:
 Charge =  1 Multiplicity = 2
 C                     0.12693  -0.17508   0.39297 
 O                    -0.01706  -0.2741    1.79834 
 H                     0.78612   0.06316   2.22105 
 P                     1.6333   -1.12374  -0.17389 
 P                     0.37155   1.6145   -0.12026 
 O                     2.77056  -0.77761   0.91378 
 H                     2.95167   0.18171   0.89493 
 O                     1.37689  -2.67544   0.15834 
 H                     1.44816  -3.20863  -0.64725 
 O                     0.69143   1.56244  -1.68555 
 H                     1.23106   0.76535  -1.92703 
 O                     1.82706   1.84341   0.65121 
 H                     1.9417    2.78055   0.8726 
 O                    -0.63144   2.62573   0.27432 
 O                     1.95355  -0.83495  -1.61041 
 C                    -1.13276  -0.78068  -0.2591 
 C                    -2.4575   -0.1551    0.20152 
 H                    -1.1323   -1.84899  -0.01258 
 H                    -1.03062  -0.69913  -1.34753 
 C                    -3.66029  -0.89805  -0.3855 
 H                    -2.50217  -0.19222   1.29587 
 H                    -2.5133    0.89983  -0.07955 
 H                    -3.62435  -0.84086  -1.48134 
 H                    -3.58188  -1.97165  -0.12774 
 N                    -4.90833  -0.26783   0.05135 
 H                    -5.70387  -0.744    -0.36671 
 H                    -5.01084  -0.37423   1.05859 
 
                    Distance matrix (angstroms):
                    1          2          3          4          5
     1  C    0.000000
     2  O    1.416193   0.000000
     3  H    1.957847   0.968259   0.000000
     4  P    1.868271   2.708370   2.803958   0.000000
     5  P    1.877722   2.720083   2.839059   3.015435   0.000000
     6  O    2.760990   2.967624   2.520685   1.611270   3.542129
     7  H    2.891093   3.136442   2.542097   2.141186   3.120980
     8  O    2.805219   3.224768   3.479039   1.607450   4.414965
     9  H    3.468448   4.091362   4.401142   2.145953   4.969848
    10  O    2.767288   4.001541   4.185490   3.223011   1.598489
    11  H    2.736039   4.064067   4.230557   2.608440   2.173530
    12  O    2.651685   3.033238   2.591765   3.085824   1.663152
    13  H    3.501312   3.744946   3.246212   4.053854   2.193357
    14  O    2.904090   3.333034   3.516532   4.403233   1.477927
    15  O    2.790251   3.977114   4.104824   1.499850   3.274611
    16  C    1.542325   2.394675   3.247354   2.788555   2.831804
    17  C    2.591588   2.918860   3.827167   4.220645   3.352395
    18  H    2.133566   2.646407   3.510806   2.863661   3.777423
    19  H    2.154969   3.332334   4.076321   2.941801   2.970716
    20  C    3.933413   4.293203   5.242956   5.302623   4.758045
    21  H    2.779872   2.536721   3.425497   4.486651   3.678033
    22  H    2.889554   3.337034   4.108400   4.614979   2.972334
    23  H    4.245987   4.908162   5.828996   5.425157   4.883498
    24  H    4.153802   4.393108   5.360661   5.283861   5.337615
    25  N    5.047688   5.193894   6.102779   6.601230   5.608008
    26  H    5.907539   6.103119   7.033348   7.349520   6.521809
    27  H    5.184534   5.049267   5.928522   6.798924   5.857888
                    6          7          8          9         10
     6  O    0.000000
     7  H    0.976448   0.000000
     8  O    2.472805   3.344518   0.000000
     9  H    3.177328   4.016624   0.968683   0.000000
    10  O    4.068800   3.697834   4.672196   4.941034   0.000000
    11  H    3.580641   3.356277   4.026049   4.180608   0.992404
    12  O    2.798014   2.021236   4.567886   5.229978   2.613245
    13  H    3.653657   2.788280   5.531456   6.198694   3.096950
    14  O    4.854404   4.381446   5.670030   6.262091   2.592617
    15  O    2.653739   2.882112   2.616948   2.611025   2.710364
    16  C    4.075729   4.352074   3.172178   3.564653   3.294335
    17  C    5.312951   5.463825   4.588739   5.029775   4.052991
    18  H    4.151905   4.650390   2.647313   2.984996   4.214579
    19  H    4.423647   4.654368   3.459704   3.596155   2.862588
    20  C    6.561895   6.820806   5.369177   5.612803   5.165424
    21  H    5.318868   5.481327   4.744203   5.336624   4.708161
    22  H    5.632023   5.597428   5.288925   5.735407   3.645351
    23  H    6.829017   7.066565   5.573745   5.659717   4.944038
    24  H    6.547060   6.954861   5.016629   5.205892   5.760012
    25  N    7.743966   7.917911   6.731421   7.038559   6.141988
    26  H    8.570691   8.795854   7.358213   7.569983   6.925234
    27  H    7.793194   7.983572   6.849023   7.256886   6.617921
                   11         12         13         14         15
    11  H    0.000000
    12  O    2.857403   0.000000
    13  H    3.521927   0.969736   0.000000
    14  O    3.431598   2.607354   2.646310   0.000000
    15  O    1.784152   3.507782   4.386037   4.712822   0.000000
    16  C    3.280220   4.058947   4.838947   3.484177   3.369613
    17  C    4.356998   4.749075   5.331168   3.327583   4.816913
    18  H    4.010656   4.778310   5.627225   4.511795   3.619918
    19  H    2.756033   4.315763   5.086437   3.720811   2.998804
    20  C    5.391523   6.221043   6.818886   4.693221   5.746267
    21  H    5.024045   4.827174   5.363255   3.533276   5.358452
    22  H    4.177499   4.501453   4.928562   2.577858   5.030481
    23  H    5.133572   6.439794   7.045322   4.904804   5.579396
    24  H    5.821770   6.664689   7.354864   5.477468   5.842207
    25  N    6.532500   7.083971   7.542545   5.168577   7.082970
    26  H    7.266773   8.027812   8.509588   6.123361   7.758295
    27  H    7.012409   7.200053   7.637083   5.366003   7.472520
                   16         17         18         19         20
    16  C    0.000000
    17  C    1.535727   0.000000
    18  H    1.096384   2.161309   0.000000
    19  H    1.096249   2.175204   1.764825   0.000000
    20  C    2.533409   1.530775   2.726553   2.807176   0.000000
    21  H    2.153950   1.095890   2.516639   3.067569   2.160195
    22  H    2.182256   1.093157   3.076956   2.522456   2.154429
    23  H    2.775881   2.159589   3.063314   2.601044   1.097920
    24  H    2.726509   2.161596   2.455351   3.100987   1.106890
    25  N    3.822868   2.458013   4.094210   4.144818   1.464793
    26  H    4.572524   3.347926   4.716531   4.775279   2.049464
    27  H    4.115946   2.702246   4.285487   4.662309   2.045426
                   21         22         23         24         25
    21  H    0.000000
    22  H    1.756268   0.000000
    23  H    3.064787   2.495886   0.000000
    24  H    2.521668   3.064243   1.764291   0.000000
    25  N    2.710010   2.667721   2.079929   2.166690   0.000000
    26  H    3.649591   3.600608   2.361395   2.463143   1.017053
    27  H    2.526431   3.025937   2.931099   2.449705   1.018019
                   26         27
    26  H    0.000000
    27  H    1.627421   0.000000
 Framework group  C1[X(C4H13NO7P2)]
 Deg. of freedom    75
                         Standard orientation:                         
 ---------------------------------------------------------------------
 Center     Atomic      Atomic             Coordinates (Angstroms)
 Number     Number       Type             X           Y           Z
 ---------------------------------------------------------------------
      1          6           0       -0.126930   -0.175079   -0.392969
      2          8           0        0.017060   -0.274099   -1.798339
      3          1           0       -0.786120    0.063161   -2.221049
      4         15           0       -1.633300   -1.123738    0.173891
      5         15           0       -0.371549    1.614501    0.120261
      6          8           0       -2.770560   -0.777608   -0.913779
      7          1           0       -2.951670    0.181712   -0.894929
      8          8           0       -1.376891   -2.675438   -0.158339
      9          1           0       -1.448161   -3.208628    0.647251
     10          8           0       -0.691429    1.562441    1.685551
     11          1           0       -1.231060    0.765352    1.927031
     12          8           0       -1.827059    1.843412   -0.651209
     13          1           0       -1.941699    2.780552   -0.872599
     14          8           0        0.631441    2.625731   -0.274319
     15          8           0       -1.953550   -0.834948    1.610411
     16          6           0        1.132760   -0.780679    0.259101
     17          6           0        2.457500   -0.155100   -0.201519
     18          1           0        1.132299   -1.848989    0.012581
     19          1           0        1.030620   -0.699129    1.347531
     20          6           0        3.660290   -0.898050    0.385501
     21          1           0        2.502170   -0.192220   -1.295869
     22          1           0        2.513300    0.899830    0.079551
     23          1           0        3.624350   -0.840860    1.481341
     24          1           0        3.581879   -1.971650    0.127741
     25          7           0        4.908330   -0.267831   -0.051349
     26          1           0        5.703870   -0.744001    0.366711
     27          1           0        5.010840   -0.374231   -1.058589
 ---------------------------------------------------------------------
 Rotational constants (GHZ):           0.7312008           0.4028206           0.3204638
 AO basis set in the form of general basis input (Overlap normalization):
      1 0
 S   6 1.00       0.000000000000
      0.3047524880D+04  0.1834737132D-02
      0.4573695180D+03  0.1403732281D-01
      0.1039486850D+03  0.6884262226D-01
      0.2921015530D+02  0.2321844432D+00
      0.9286662960D+01  0.4679413484D+00
      0.3163926960D+01  0.3623119853D+00
 SP   3 1.00       0.000000000000
      0.7868272350D+01 -0.1193324198D+00  0.6899906659D-01
      0.1881288540D+01 -0.1608541517D+00  0.3164239610D+00
      0.5442492580D+00  0.1143456438D+01  0.7443082909D+00
 SP   1 1.00       0.000000000000
      0.1687144782D+00  0.1000000000D+01  0.1000000000D+01
 D   1 1.00       0.000000000000
      0.8000000000D+00  0.1000000000D+01
 ****
      2 0
 S   6 1.00       0.000000000000
      0.5484671660D+04  0.1831074430D-02
      0.8252349460D+03  0.1395017220D-01
      0.1880469580D+03  0.6844507810D-01
      0.5296450000D+02  0.2327143360D+00
      0.1689757040D+02  0.4701928980D+00
      0.5799635340D+01  0.3585208530D+00
 SP   3 1.00       0.000000000000
      0.1553961625D+02 -0.1107775495D+00  0.7087426823D-01
      0.3599933586D+01 -0.1480262627D+00  0.3397528391D+00
      0.1013761750D+01  0.1130767015D+01  0.7271585773D+00
 SP   1 1.00       0.000000000000
      0.2700058226D+00  0.1000000000D+01  0.1000000000D+01
 D   1 1.00       0.000000000000
      0.8000000000D+00  0.1000000000D+01
 ****
      3 0
 S   3 1.00       0.000000000000
      0.1873113696D+02  0.3349460434D-01
      0.2825394365D+01  0.2347269535D+00
      0.6401216923D+00  0.8137573261D+00
 S   1 1.00       0.000000000000
      0.1612777588D+00  0.1000000000D+01
 P   1 1.00       0.000000000000
      0.1100000000D+01  0.1000000000D+01
 ****
      4 0
 S   6 1.00       0.000000000000
      0.1941330000D+05  0.1851598923D-02
      0.2909420000D+04  0.1420619174D-01
      0.6613640000D+03  0.6999945928D-01
      0.1857590000D+03  0.2400788603D+00
      0.5919430000D+02  0.4847617180D+00
      0.2003100000D+02  0.3351998050D+00
 SP   6 1.00       0.000000000000
      0.3394780000D+03 -0.2782170105D-02  0.4564616191D-02
      0.8101010000D+02 -0.3604990135D-01  0.3369357188D-01
      0.2587800000D+02 -0.1166310044D+00  0.1397548834D+00
      0.9452210000D+01  0.9683280364D-01  0.3393617168D+00
      0.3665660000D+01  0.6144180231D+00  0.4509206237D+00
      0.1467460000D+01  0.4037980152D+00  0.2385858009D+00
 SP   3 1.00       0.000000000000
      0.2156230000D+01 -0.2529241139D+00 -0.1776531273D-01
      0.7489970000D+00  0.3285184468D-01  0.2740581964D+00
      0.2831450000D+00  0.1081254762D+01  0.7854215630D+00
 SP   1 1.00       0.000000000000
      0.9983170000D-01  0.1000000000D+01  0.1000000000D+01
 D   1 1.00       0.000000000000
      0.5500000000D+00  0.1000000000D+01
 ****
      5 0
 S   6 1.00       0.000000000000
      0.1941330000D+05  0.1851598923D-02
      0.2909420000D+04  0.1420619174D-01
      0.6613640000D+03  0.6999945928D-01
      0.1857590000D+03  0.2400788603D+00
      0.5919430000D+02  0.4847617180D+00
      0.2003100000D+02  0.3351998050D+00
 SP   6 1.00       0.000000000000
      0.3394780000D+03 -0.2782170105D-02  0.4564616191D-02
      0.8101010000D+02 -0.3604990135D-01  0.3369357188D-01
      0.2587800000D+02 -0.1166310044D+00  0.1397548834D+00
      0.9452210000D+01  0.9683280364D-01  0.3393617168D+00
      0.3665660000D+01  0.6144180231D+00  0.4509206237D+00
      0.1467460000D+01  0.4037980152D+00  0.2385858009D+00
 SP   3 1.00       0.000000000000
      0.2156230000D+01 -0.2529241139D+00 -0.1776531273D-01
      0.7489970000D+00  0.3285184468D-01  0.2740581964D+00
      0.2831450000D+00  0.1081254762D+01  0.7854215630D+00
 SP   1 1.00       0.000000000000
      0.9983170000D-01  0.1000000000D+01  0.1000000000D+01
 D   1 1.00       0.000000000000
      0.5500000000D+00  0.1000000000D+01
 ****
      6 0
 S   6 1.00       0.000000000000
      0.5484671660D+04  0.1831074430D-02
      0.8252349460D+03  0.1395017220D-01
      0.1880469580D+03  0.6844507810D-01
      0.5296450000D+02  0.2327143360D+00
      0.1689757040D+02  0.4701928980D+00
      0.5799635340D+01  0.3585208530D+00
 SP   3 1.00       0.000000000000
      0.1553961625D+02 -0.1107775495D+00  0.7087426823D-01
      0.3599933586D+01 -0.1480262627D+00  0.3397528391D+00
      0.1013761750D+01  0.1130767015D+01  0.7271585773D+00
 SP   1 1.00       0.000000000000
      0.2700058226D+00  0.1000000000D+01  0.1000000000D+01
 D   1 1.00       0.000000000000
      0.8000000000D+00  0.1000000000D+01
 ****
      7 0
 S   3 1.00       0.000000000000
      0.1873113696D+02  0.3349460434D-01
      0.2825394365D+01  0.2347269535D+00
      0.6401216923D+00  0.8137573261D+00
 S   1 1.00       0.000000000000
      0.1612777588D+00  0.1000000000D+01
 P   1 1.00       0.000000000000
      0.1100000000D+01  0.1000000000D+01
 ****
      8 0
 S   6 1.00       0.000000000000
      0.5484671660D+04  0.1831074430D-02
      0.8252349460D+03  0.1395017220D-01
      0.1880469580D+03  0.6844507810D-01
      0.5296450000D+02  0.2327143360D+00
      0.1689757040D+02  0.4701928980D+00
      0.5799635340D+01  0.3585208530D+00
 SP   3 1.00       0.000000000000
      0.1553961625D+02 -0.1107775495D+00  0.7087426823D-01
      0.3599933586D+01 -0.1480262627D+00  0.3397528391D+00
      0.1013761750D+01  0.1130767015D+01  0.7271585773D+00
 SP   1 1.00       0.000000000000
      0.2700058226D+00  0.1000000000D+01  0.1000000000D+01
 D   1 1.00       0.000000000000
      0.8000000000D+00  0.1000000000D+01
 ****
      9 0
 S   3 1.00       0.000000000000
      0.1873113696D+02  0.3349460434D-01
      0.2825394365D+01  0.2347269535D+00
      0.6401216923D+00  0.8137573261D+00
 S   1 1.00       0.000000000000
      0.1612777588D+00  0.1000000000D+01
 P   1 1.00       0.000000000000
      0.1100000000D+01  0.1000000000D+01
 ****
     10 0
 S   6 1.00       0.000000000000
      0.5484671660D+04  0.1831074430D-02
      0.8252349460D+03  0.1395017220D-01
      0.1880469580D+03  0.6844507810D-01
      0.5296450000D+02  0.2327143360D+00
      0.1689757040D+02  0.4701928980D+00
      0.5799635340D+01  0.3585208530D+00
 SP   3 1.00       0.000000000000
      0.1553961625D+02 -0.1107775495D+00  0.7087426823D-01
      0.3599933586D+01 -0.1480262627D+00  0.3397528391D+00
      0.1013761750D+01  0.1130767015D+01  0.7271585773D+00
 SP   1 1.00       0.000000000000
      0.2700058226D+00  0.1000000000D+01  0.1000000000D+01
 D   1 1.00       0.000000000000
      0.8000000000D+00  0.1000000000D+01
 ****
     11 0
 S   3 1.00       0.000000000000
      0.1873113696D+02  0.3349460434D-01
      0.2825394365D+01  0.2347269535D+00
      0.6401216923D+00  0.8137573261D+00
 S   1 1.00       0.000000000000
      0.1612777588D+00  0.1000000000D+01
 P   1 1.00       0.000000000000
      0.1100000000D+01  0.1000000000D+01
 ****
     12 0
 S   6 1.00       0.000000000000
      0.5484671660D+04  0.1831074430D-02
      0.8252349460D+03  0.1395017220D-01
      0.1880469580D+03  0.6844507810D-01
      0.5296450000D+02  0.2327143360D+00
      0.1689757040D+02  0.4701928980D+00
      0.5799635340D+01  0.3585208530D+00
 SP   3 1.00       0.000000000000
      0.1553961625D+02 -0.1107775495D+00  0.7087426823D-01
      0.3599933586D+01 -0.1480262627D+00  0.3397528391D+00
      0.1013761750D+01  0.1130767015D+01  0.7271585773D+00
 SP   1 1.00       0.000000000000
      0.2700058226D+00  0.1000000000D+01  0.1000000000D+01
 D   1 1.00       0.000000000000
      0.8000000000D+00  0.1000000000D+01
 ****
     13 0
 S   3 1.00       0.000000000000
      0.1873113696D+02  0.3349460434D-01
      0.2825394365D+01  0.2347269535D+00
      0.6401216923D+00  0.8137573261D+00
 S   1 1.00       0.000000000000
      0.1612777588D+00  0.1000000000D+01
 P   1 1.00       0.000000000000
      0.1100000000D+01  0.1000000000D+01
 ****
     14 0
 S   6 1.00       0.000000000000
      0.5484671660D+04  0.1831074430D-02
      0.8252349460D+03  0.1395017220D-01
      0.1880469580D+03  0.6844507810D-01
      0.5296450000D+02  0.2327143360D+00
      0.1689757040D+02  0.4701928980D+00
      0.5799635340D+01  0.3585208530D+00
 SP   3 1.00       0.000000000000
      0.1553961625D+02 -0.1107775495D+00  0.7087426823D-01
      0.3599933586D+01 -0.1480262627D+00  0.3397528391D+00
      0.1013761750D+01  0.1130767015D+01  0.7271585773D+00
 SP   1 1.00       0.000000000000
      0.2700058226D+00  0.1000000000D+01  0.1000000000D+01
 D   1 1.00       0.000000000000
      0.8000000000D+00  0.1000000000D+01
 ****
     15 0
 S   6 1.00       0.000000000000
      0.5484671660D+04  0.1831074430D-02
      0.8252349460D+03  0.1395017220D-01
      0.1880469580D+03  0.6844507810D-01
      0.5296450000D+02  0.2327143360D+00
      0.1689757040D+02  0.4701928980D+00
      0.5799635340D+01  0.3585208530D+00
 SP   3 1.00       0.000000000000
      0.1553961625D+02 -0.1107775495D+00  0.7087426823D-01
      0.3599933586D+01 -0.1480262627D+00  0.3397528391D+00
      0.1013761750D+01  0.1130767015D+01  0.7271585773D+00
 SP   1 1.00       0.000000000000
      0.2700058226D+00  0.1000000000D+01  0.1000000000D+01
 D   1 1.00       0.000000000000
      0.8000000000D+00  0.1000000000D+01
 ****
     16 0
 S   6 1.00       0.000000000000
      0.3047524880D+04  0.1834737132D-02
      0.4573695180D+03  0.1403732281D-01
      0.1039486850D+03  0.6884262226D-01
      0.2921015530D+02  0.2321844432D+00
      0.9286662960D+01  0.4679413484D+00
      0.3163926960D+01  0.3623119853D+00
 SP   3 1.00       0.000000000000
      0.7868272350D+01 -0.1193324198D+00  0.6899906659D-01
      0.1881288540D+01 -0.1608541517D+00  0.3164239610D+00
      0.5442492580D+00  0.1143456438D+01  0.7443082909D+00
 SP   1 1.00       0.000000000000
      0.1687144782D+00  0.1000000000D+01  0.1000000000D+01
 D   1 1.00       0.000000000000
      0.8000000000D+00  0.1000000000D+01
 ****
     17 0
 S   6 1.00       0.000000000000
      0.3047524880D+04  0.1834737132D-02
      0.4573695180D+03  0.1403732281D-01
      0.1039486850D+03  0.6884262226D-01
      0.2921015530D+02  0.2321844432D+00
      0.9286662960D+01  0.4679413484D+00
      0.3163926960D+01  0.3623119853D+00
 SP   3 1.00       0.000000000000
      0.7868272350D+01 -0.1193324198D+00  0.6899906659D-01
      0.1881288540D+01 -0.1608541517D+00  0.3164239610D+00
      0.5442492580D+00  0.1143456438D+01  0.7443082909D+00
 SP   1 1.00       0.000000000000
      0.1687144782D+00  0.1000000000D+01  0.1000000000D+01
 D   1 1.00       0.000000000000
      0.8000000000D+00  0.1000000000D+01
 ****
     18 0
 S   3 1.00       0.000000000000
      0.1873113696D+02  0.3349460434D-01
      0.2825394365D+01  0.2347269535D+00
      0.6401216923D+00  0.8137573261D+00
 S   1 1.00       0.000000000000
      0.1612777588D+00  0.1000000000D+01
 P   1 1.00       0.000000000000
      0.1100000000D+01  0.1000000000D+01
 ****
     19 0
 S   3 1.00       0.000000000000
      0.1873113696D+02  0.3349460434D-01
      0.2825394365D+01  0.2347269535D+00
      0.6401216923D+00  0.8137573261D+00
 S   1 1.00       0.000000000000
      0.1612777588D+00  0.1000000000D+01
 P   1 1.00       0.000000000000
      0.1100000000D+01  0.1000000000D+01
 ****
     20 0
 S   6 1.00       0.000000000000
      0.3047524880D+04  0.1834737132D-02
      0.4573695180D+03  0.1403732281D-01
      0.1039486850D+03  0.6884262226D-01
      0.2921015530D+02  0.2321844432D+00
      0.9286662960D+01  0.4679413484D+00
      0.3163926960D+01  0.3623119853D+00
 SP   3 1.00       0.000000000000
      0.7868272350D+01 -0.1193324198D+00  0.6899906659D-01
      0.1881288540D+01 -0.1608541517D+00  0.3164239610D+00
      0.5442492580D+00  0.1143456438D+01  0.7443082909D+00
 SP   1 1.00       0.000000000000
      0.1687144782D+00  0.1000000000D+01  0.1000000000D+01
 D   1 1.00       0.000000000000
      0.8000000000D+00  0.1000000000D+01
 ****
     21 0
 S   3 1.00       0.000000000000
      0.1873113696D+02  0.3349460434D-01
      0.2825394365D+01  0.2347269535D+00
      0.6401216923D+00  0.8137573261D+00
 S   1 1.00       0.000000000000
      0.1612777588D+00  0.1000000000D+01
 P   1 1.00       0.000000000000
      0.1100000000D+01  0.1000000000D+01
 ****
     22 0
 S   3 1.00       0.000000000000
      0.1873113696D+02  0.3349460434D-01
      0.2825394365D+01  0.2347269535D+00
      0.6401216923D+00  0.8137573261D+00
 S   1 1.00       0.000000000000
      0.1612777588D+00  0.1000000000D+01
 P   1 1.00       0.000000000000
      0.1100000000D+01  0.1000000000D+01
 ****
     23 0
 S   3 1.00       0.000000000000
      0.1873113696D+02  0.3349460434D-01
      0.2825394365D+01  0.2347269535D+00
      0.6401216923D+00  0.8137573261D+00
 S   1 1.00       0.000000000000
      0.1612777588D+00  0.1000000000D+01
 P   1 1.00       0.000000000000
      0.1100000000D+01  0.1000000000D+01
 ****
     24 0
 S   3 1.00       0.000000000000
      0.1873113696D+02  0.3349460434D-01
      0.2825394365D+01  0.2347269535D+00
      0.6401216923D+00  0.8137573261D+00
 S   1 1.00       0.000000000000
      0.1612777588D+00  0.1000000000D+01
 P   1 1.00       0.000000000000
      0.1100000000D+01  0.1000000000D+01
 ****
     25 0
 S   6 1.00       0.000000000000
      0.4173511460D+04  0.1834772160D-02
      0.6274579110D+03  0.1399462700D-01
      0.1429020930D+03  0.6858655181D-01
      0.4023432930D+02  0.2322408730D+00
      0.1282021290D+02  0.4690699481D+00
      0.4390437010D+01  0.3604551991D+00
 SP   3 1.00       0.000000000000
      0.1162636186D+02 -0.1149611817D+00  0.6757974388D-01
      0.2716279807D+01 -0.1691174786D+00  0.3239072959D+00
      0.7722183966D+00  0.1145851947D+01  0.7408951398D+00
 SP   1 1.00       0.000000000000
      0.2120314975D+00  0.1000000000D+01  0.1000000000D+01
 D   1 1.00       0.000000000000
      0.8000000000D+00  0.1000000000D+01
 ****
     26 0
 S   3 1.00       0.000000000000
      0.1873113696D+02  0.3349460434D-01
      0.2825394365D+01  0.2347269535D+00
      0.6401216923D+00  0.8137573261D+00
 S   1 1.00       0.000000000000
      0.1612777588D+00  0.1000000000D+01
 P   1 1.00       0.000000000000
      0.1100000000D+01  0.1000000000D+01
 ****
     27 0
 S   3 1.00       0.000000000000
      0.1873113696D+02  0.3349460434D-01
      0.2825394365D+01  0.2347269535D+00
      0.6401216923D+00  0.8137573261D+00
 S   1 1.00       0.000000000000
      0.1612777588D+00  0.1000000000D+01
 P   1 1.00       0.000000000000
      0.1100000000D+01  0.1000000000D+01
 ****

   283 basis functions,   531 primitive gaussians,   283 cartesian basis functions
    65 alpha electrons       64 beta electrons
       nuclear repulsion energy      1388.1218734604 Hartrees.
 NAtoms=   27 NActive=   27 NUniq=   27 SFac= 1.00D+00 NAtFMM=   60 NAOKFM=F Big=F
 ExpMin= 9.98D-02 ExpMax= 1.94D+04 ExpMxC= 2.91D+03 IAcc=3 IRadAn=         5 AccDes= 0.00D+00
 Harris functional with IExCor=  402 and IRadAn=       5 diagonalized for initial guess.
 HarFok:  IExCor=  402 AccDes= 0.00D+00 IRadAn=         5 IDoV= 1 UseB2=F ITyADJ=14
 ICtDFT=  3500011 ScaDFX=  1.000000  1.000000  1.000000  1.000000
 FoFCou: FMM=F IPFlag=           0 FMFlag=      100000 FMFlg1=           0
         NFxFlg=           0 DoJE=T BraDBF=F KetDBF=T FulRan=T
         wScrn=  0.000000 ICntrl=       500 IOpCl=  0 I1Cent=   200000004 NGrid=           0
         NMat0=    1 NMatS0=      1 NMatT0=    0 NMatD0=    1 NMtDS0=    0 NMtDT0=    0
 Petite list used in FoFCou.
 Initial guess <Sx>= 0.0000 <Sy>= 0.0000 <Sz>= 0.5000 <S**2>= 0.7500 S= 0.5000
 Integral accuracy reduced to 1.0D-05 until final iterations.
 EnCoef did     3 forward-backward iterations
 Initial convergence to 1.0D-05 achieved.  Increase integral accuracy.
 SCF Done:  E(UB3LYP) =  -1424.11491881     A.U. after   24 cycles
            NFock= 24  Conv=0.83D-08     -V/T= 2.0066
 <Sx>= 0.0000 <Sy>= 0.0000 <Sz>= 0.5000 <S**2>= 0.7533 S= 0.5017
 <L.S>= 0.000000000000E+00
 Annihilation of the first spin contaminant:
 S**2 before annihilation     0.7533,   after     0.7500

 **********************************************************************

            Population analysis using the SCF density.

 **********************************************************************

 Orbital symmetries:
 Alpha Orbitals:
       Occupied  (A) (A) (A) (A) (A) (A) (A) (A) (A) (A) (A) (A)
                 (A) (A) (A) (A) (A) (A) (A) (A) (A) (A) (A) (A)
                 (A) (A) (A) (A) (A) (A) (A) (A) (A) (A) (A) (A)
                 (A) (A) (A) (A) (A) (A) (A) (A) (A) (A) (A) (A)
                 (A) (A) (A) (A) (A) (A) (A) (A) (A) (A) (A) (A)
                 (A) (A) (A) (A) (A)
       Virtual   (A) (A) (A) (A) (A) (A) (A) (A) (A) (A) (A) (A)
                 (A) (A) (A) (A) (A) (A) (A) (A) (A) (A) (A) (A)
                 (A) (A) (A) (A) (A) (A) (A) (A) (A) (A) (A) (A)
                 (A) (A) (A) (A) (A) (A) (A) (A) (A) (A) (A) (A)
                 (A) (A) (A) (A) (A) (A) (A) (A) (A) (A) (A) (A)
                 (A) (A) (A) (A) (A) (A) (A) (A) (A) (A) (A) (A)
                 (A) (A) (A) (A) (A) (A) (A) (A) (A) (A) (A) (A)
                 (A) (A) (A) (A) (A) (A) (A) (A) (A) (A) (A) (A)
                 (A) (A) (A) (A) (A) (A) (A) (A) (A) (A) (A) (A)
                 (A) (A) (A) (A) (A) (A) (A) (A) (A) (A) (A) (A)
                 (A) (A) (A) (A) (A) (A) (A) (A) (A) (A) (A) (A)
                 (A) (A) (A) (A) (A) (A) (A) (A) (A) (A) (A) (A)
                 (A) (A) (A) (A) (A) (A) (A) (A) (A) (A) (A) (A)
                 (A) (A) (A) (A) (A) (A) (A) (A) (A) (A) (A) (A)
                 (A) (A) (A) (A) (A) (A) (A) (A) (A) (A) (A) (A)
                 (A) (A) (A) (A) (A) (A) (A) (A) (A) (A) (A) (A)
                 (A) (A) (A) (A) (A) (A) (A) (A) (A) (A) (A) (A)
                 (A) (A) (A) (A) (A) (A) (A) (A) (A) (A) (A) (A)
                 (A) (A)
 Beta  Orbitals:
       Occupied  (A) (A) (A) (A) (A) (A) (A) (A) (A) (A) (A) (A)
                 (A) (A) (A) (A) (A) (A) (A) (A) (A) (A) (A) (A)
                 (A) (A) (A) (A) (A) (A) (A) (A) (A) (A) (A) (A)
                 (A) (A) (A) (A) (A) (A) (A) (A) (A) (A) (A) (A)
                 (A) (A) (A) (A) (A) (A) (A) (A) (A) (A) (A) (A)
                 (A) (A) (A) (A)
       Virtual   (A) (A) (A) (A) (A) (A) (A) (A) (A) (A) (A) (A)
                 (A) (A) (A) (A) (A) (A) (A) (A) (A) (A) (A) (A)
                 (A) (A) (A) (A) (A) (A) (A) (A) (A) (A) (A) (A)
                 (A) (A) (A) (A) (A) (A) (A) (A) (A) (A) (A) (A)
                 (A) (A) (A) (A) (A) (A) (A) (A) (A) (A) (A) (A)
                 (A) (A) (A) (A) (A) (A) (A) (A) (A) (A) (A) (A)
                 (A) (A) (A) (A) (A) (A) (A) (A) (A) (A) (A) (A)
                 (A) (A) (A) (A) (A) (A) (A) (A) (A) (A) (A) (A)
                 (A) (A) (A) (A) (A) (A) (A) (A) (A) (A) (A) (A)
                 (A) (A) (A) (A) (A) (A) (A) (A) (A) (A) (A) (A)
                 (A) (A) (A) (A) (A) (A) (A) (A) (A) (A) (A) (A)
                 (A) (A) (A) (A) (A) (A) (A) (A) (A) (A) (A) (A)
                 (A) (A) (A) (A) (A) (A) (A) (A) (A) (A) (A) (A)
                 (A) (A) (A) (A) (A) (A) (A) (A) (A) (A) (A) (A)
                 (A) (A) (A) (A) (A) (A) (A) (A) (A) (A) (A) (A)
                 (A) (A) (A) (A) (A) (A) (A) (A) (A) (A) (A) (A)
                 (A) (A) (A) (A) (A) (A) (A) (A) (A) (A) (A) (A)
                 (A) (A) (A) (A) (A) (A) (A) (A) (A) (A) (A) (A)
                 (A) (A) (A)
 The electronic state is 2-A.
 Alpha  occ. eigenvalues --  -77.39113 -77.37714 -19.36097 -19.34533 -19.34270
 Alpha  occ. eigenvalues --  -19.33779 -19.32286 -19.28843 -19.27444 -14.57891
 Alpha  occ. eigenvalues --  -10.44871 -10.40173 -10.36772 -10.35068  -6.84040
 Alpha  occ. eigenvalues --   -6.82709  -5.00420  -5.00326  -5.00245  -4.99114
 Alpha  occ. eigenvalues --   -4.98995  -4.98866  -1.24543  -1.22647  -1.21797
 Alpha  occ. eigenvalues --   -1.18870  -1.17700  -1.13279  -1.11994  -1.11377
 Alpha  occ. eigenvalues --   -0.97297  -0.90921  -0.83381  -0.79788  -0.77767
 Alpha  occ. eigenvalues --   -0.75359  -0.72217  -0.70481  -0.69587  -0.68615
 Alpha  occ. eigenvalues --   -0.67216  -0.66411  -0.63003  -0.62292  -0.60713
 Alpha  occ. eigenvalues --   -0.60136  -0.58571  -0.57398  -0.56609  -0.55586
 Alpha  occ. eigenvalues --   -0.54743  -0.53708  -0.53218  -0.52862  -0.51918
 Alpha  occ. eigenvalues --   -0.51136  -0.50176  -0.49533  -0.49239  -0.48542
 Alpha  occ. eigenvalues --   -0.48399  -0.46093  -0.45747  -0.44636  -0.43474
 Alpha virt. eigenvalues --   -0.12918  -0.11073  -0.09592  -0.09266  -0.07284
 Alpha virt. eigenvalues --   -0.06054  -0.04661  -0.04044  -0.03945  -0.03036
 Alpha virt. eigenvalues --   -0.02282  -0.01687  -0.00547  -0.00393   0.00712
 Alpha virt. eigenvalues --    0.01329   0.02443   0.02693   0.03888   0.04695
 Alpha virt. eigenvalues --    0.06271   0.07330   0.08630   0.09975   0.10919
 Alpha virt. eigenvalues --    0.11951   0.17611   0.19813   0.22503   0.23585
 Alpha virt. eigenvalues --    0.25888   0.26422   0.28015   0.31520   0.33561
 Alpha virt. eigenvalues --    0.35646   0.37684   0.38836   0.40564   0.41418
 Alpha virt. eigenvalues --    0.43099   0.43465   0.47262   0.49675   0.51667
 Alpha virt. eigenvalues --    0.53629   0.55213   0.55806   0.59038   0.60151
 Alpha virt. eigenvalues --    0.60791   0.62161   0.62881   0.63455   0.65129
 Alpha virt. eigenvalues --    0.65523   0.66706   0.67765   0.68479   0.69588
 Alpha virt. eigenvalues --    0.70750   0.71907   0.72881   0.73838   0.74122
 Alpha virt. eigenvalues --    0.75455   0.77178   0.77889   0.78864   0.80549
 Alpha virt. eigenvalues --    0.81758   0.82258   0.83471   0.84871   0.85383
 Alpha virt. eigenvalues --    0.85766   0.88092   0.88238   0.90372   0.90537
 Alpha virt. eigenvalues --    0.91220   0.92140   0.94688   0.96321   0.99260
 Alpha virt. eigenvalues --    1.02610   1.03036   1.04109   1.05052   1.06185
 Alpha virt. eigenvalues --    1.07357   1.08870   1.11696   1.13268   1.15089
 Alpha virt. eigenvalues --    1.15411   1.19045   1.20196   1.24485   1.25359
 Alpha virt. eigenvalues --    1.29204   1.32688   1.36987   1.38182   1.38935
 Alpha virt. eigenvalues --    1.39288   1.42475   1.42872   1.43545   1.44911
 Alpha virt. eigenvalues --    1.45853   1.49471   1.50457   1.51483   1.52450
 Alpha virt. eigenvalues --    1.53156   1.56620   1.57998   1.60262   1.62548
 Alpha virt. eigenvalues --    1.62891   1.65351   1.65851   1.67118   1.68745
 Alpha virt. eigenvalues --    1.69911   1.70252   1.70825   1.71799   1.73505
 Alpha virt. eigenvalues --    1.74622   1.76216   1.78003   1.81909   1.85567
 Alpha virt. eigenvalues --    1.86473   1.87757   1.89129   1.90375   1.92424
 Alpha virt. eigenvalues --    1.93469   1.95825   1.99343   2.00182   2.01534
 Alpha virt. eigenvalues --    2.03493   2.04182   2.06674   2.07514   2.09092
 Alpha virt. eigenvalues --    2.11588   2.16225   2.17143   2.18383   2.20601
 Alpha virt. eigenvalues --    2.21281   2.22302   2.23351   2.25722   2.29899
 Alpha virt. eigenvalues --    2.31549   2.32679   2.34144   2.36080   2.36291
 Alpha virt. eigenvalues --    2.42795   2.43827   2.46044   2.46826   2.47582
 Alpha virt. eigenvalues --    2.48440   2.48999   2.49722   2.50617   2.52794
 Alpha virt. eigenvalues --    2.53484   2.53756   2.57193   2.60314   2.60943
 Alpha virt. eigenvalues --    2.63420   2.65060   2.67007   2.68620   2.72005
 Alpha virt. eigenvalues --    2.72521   2.73101   2.74798   2.76391   2.78497
 Alpha virt. eigenvalues --    2.88266   3.04683   3.08976   3.11641   3.16980
 Alpha virt. eigenvalues --    3.19434   3.20768   3.21408   3.26036   3.28656
 Alpha virt. eigenvalues --    3.29423   3.31166   3.34955   3.36800   3.39901
 Alpha virt. eigenvalues --    3.41259   3.64965   3.75347   3.80867   3.86684
 Alpha virt. eigenvalues --    3.91145   3.95581   4.04844   4.12937   4.15723
 Alpha virt. eigenvalues --    4.24706   4.38300   4.55908
  Beta  occ. eigenvalues --  -77.39099 -77.37712 -19.35744 -19.34499 -19.34251
  Beta  occ. eigenvalues --  -19.33745 -19.32227 -19.28688 -19.27226 -14.56853
  Beta  occ. eigenvalues --  -10.44756 -10.40152 -10.36765 -10.35032  -6.84024
  Beta  occ. eigenvalues --   -6.82707  -5.00414  -5.00319  -5.00196  -4.99120
  Beta  occ. eigenvalues --   -4.98992  -4.98852  -1.24276  -1.22362  -1.21378
  Beta  occ. eigenvalues --   -1.18777  -1.17590  -1.12939  -1.11517  -1.09505
  Beta  occ. eigenvalues --   -0.96982  -0.90336  -0.82923  -0.79507  -0.77483
  Beta  occ. eigenvalues --   -0.75167  -0.72014  -0.69966  -0.69264  -0.68401
  Beta  occ. eigenvalues --   -0.66598  -0.65375  -0.62527  -0.62054  -0.60552
  Beta  occ. eigenvalues --   -0.59795  -0.58255  -0.56631  -0.56252  -0.55313
  Beta  occ. eigenvalues --   -0.54391  -0.53331  -0.52472  -0.52450  -0.51403
  Beta  occ. eigenvalues --   -0.50936  -0.49795  -0.49099  -0.48647  -0.47595
  Beta  occ. eigenvalues --   -0.45917  -0.44663  -0.44412  -0.41097
  Beta virt. eigenvalues --   -0.38851  -0.12721  -0.10894  -0.09280  -0.09009
  Beta virt. eigenvalues --   -0.07039  -0.05884  -0.04362  -0.03840  -0.03686
  Beta virt. eigenvalues --   -0.02866  -0.02035  -0.01459  -0.00350  -0.00154
  Beta virt. eigenvalues --    0.00899   0.01523   0.02622   0.02866   0.04072
  Beta virt. eigenvalues --    0.04957   0.06369   0.07510   0.08835   0.10168
  Beta virt. eigenvalues --    0.11040   0.12140   0.17652   0.19880   0.22622
  Beta virt. eigenvalues --    0.23759   0.25979   0.26519   0.28103   0.31612
  Beta virt. eigenvalues --    0.33694   0.35814   0.37867   0.39206   0.40916
  Beta virt. eigenvalues --    0.41634   0.43270   0.43629   0.48367   0.50345
  Beta virt. eigenvalues --    0.53043   0.54012   0.55294   0.56100   0.59281
  Beta virt. eigenvalues --    0.60205   0.61038   0.62483   0.63031   0.63710
  Beta virt. eigenvalues --    0.65290   0.65891   0.67285   0.68124   0.68769
  Beta virt. eigenvalues --    0.69763   0.70939   0.72141   0.73234   0.74108
  Beta virt. eigenvalues --    0.74258   0.75733   0.77335   0.78059   0.79194
  Beta virt. eigenvalues --    0.80792   0.81911   0.82425   0.83574   0.85018
  Beta virt. eigenvalues --    0.85829   0.86019   0.88285   0.88469   0.90465
  Beta virt. eigenvalues --    0.90702   0.91462   0.92335   0.94979   0.96538
  Beta virt. eigenvalues --    0.99435   1.02816   1.03156   1.04391   1.05271
  Beta virt. eigenvalues --    1.06384   1.07477   1.09544   1.11965   1.13615
  Beta virt. eigenvalues --    1.15425   1.15890   1.19183   1.20586   1.24751
  Beta virt. eigenvalues --    1.25714   1.29377   1.32792   1.37184   1.38369
  Beta virt. eigenvalues --    1.39079   1.39646   1.42637   1.43272   1.43728
  Beta virt. eigenvalues --    1.45004   1.45947   1.49789   1.50728   1.51597
  Beta virt. eigenvalues --    1.52684   1.53880   1.56821   1.58232   1.60412
  Beta virt. eigenvalues --    1.62735   1.63131   1.65919   1.66156   1.67427
  Beta virt. eigenvalues --    1.69001   1.70230   1.70460   1.71138   1.72075
  Beta virt. eigenvalues --    1.73771   1.74907   1.76437   1.78587   1.82152
  Beta virt. eigenvalues --    1.86165   1.86933   1.88713   1.89474   1.90725
  Beta virt. eigenvalues --    1.92693   1.93761   1.95981   1.99544   2.00395
  Beta virt. eigenvalues --    2.01696   2.03768   2.04331   2.07048   2.08003
  Beta virt. eigenvalues --    2.09442   2.12101   2.16288   2.17200   2.18582
  Beta virt. eigenvalues --    2.20832   2.21713   2.22682   2.23792   2.26095
  Beta virt. eigenvalues --    2.30150   2.31883   2.32934   2.34267   2.36225
  Beta virt. eigenvalues --    2.36849   2.43375   2.43980   2.46134   2.46925
  Beta virt. eigenvalues --    2.47629   2.48527   2.49136   2.49831   2.50796
  Beta virt. eigenvalues --    2.52886   2.53781   2.53997   2.57518   2.60519
  Beta virt. eigenvalues --    2.61089   2.63565   2.65588   2.67337   2.68812
  Beta virt. eigenvalues --    2.72284   2.72650   2.73264   2.75391   2.76746
  Beta virt. eigenvalues --    2.78688   2.88451   3.05168   3.09701   3.11790
  Beta virt. eigenvalues --    3.17384   3.19467   3.20789   3.21617   3.26064
  Beta virt. eigenvalues --    3.28851   3.29793   3.31217   3.35337   3.36849
  Beta virt. eigenvalues --    3.39935   3.41382   3.65190   3.76858   3.81393
  Beta virt. eigenvalues --    3.86962   3.91223   3.95819   4.04967   4.13070
  Beta virt. eigenvalues --    4.15890   4.24924   4.38426   4.55996
     Alpha Molecular Orbital Coefficients:
                           1         2         3         4         5
                           O         O         O         O         O
     Eigenvalues --   -77.39113 -77.37714 -19.36097 -19.34533 -19.34270
   1 1   C  1S         -0.00003  -0.00003  -0.00002  -0.00002  -0.00003
   2        2S         -0.00002  -0.00001   0.00013  -0.00015  -0.00016
   3        2PX        -0.00002  -0.00002   0.00007   0.00001  -0.00010
   4        2PY        -0.00003   0.00004  -0.00005  -0.00004   0.00004
   5        2PZ         0.00000   0.00000  -0.00033   0.00007  -0.00004
   6        3S          0.00083   0.00068  -0.00105   0.00083   0.00142
   7        3PX        -0.00021   0.00007  -0.00048  -0.00063   0.00045
   8        3PY        -0.00042   0.00047   0.00017   0.00002   0.00043
   9        3PZ         0.00003  -0.00006   0.00102  -0.00008   0.00117
  10        4XX        -0.00010  -0.00008   0.00002   0.00000   0.00001
  11        4YY        -0.00009  -0.00014   0.00002   0.00002   0.00001
  12        4ZZ        -0.00006  -0.00005   0.00020  -0.00004  -0.00007
  13        4XY        -0.00004   0.00000   0.00000   0.00005  -0.00004
  14        4XZ         0.00003  -0.00000  -0.00004  -0.00001   0.00001
  15        4YZ         0.00002  -0.00003   0.00003  -0.00001   0.00002
  16 2   O  1S          0.00000   0.00001   0.99272  -0.00009  -0.00009
  17        2S          0.00001   0.00003   0.02593  -0.00017  -0.00025
  18        2PX         0.00001   0.00001  -0.00091   0.00005   0.00001
  19        2PY        -0.00000  -0.00000   0.00041   0.00005  -0.00001
  20        2PZ        -0.00001  -0.00001   0.00037  -0.00003  -0.00002
  21        3S         -0.00020  -0.00028   0.01225   0.00053   0.00127
  22        3PX         0.00000  -0.00006   0.00001  -0.00011  -0.00021
  23        3PY         0.00009  -0.00009   0.00001  -0.00024   0.00015
  24        3PZ        -0.00014  -0.00016   0.00050   0.00019   0.00025
  25        4XX         0.00003  -0.00000  -0.00808  -0.00013  -0.00014
  26        4YY        -0.00002   0.00002  -0.00813  -0.00012  -0.00014
  27        4ZZ        -0.00001  -0.00000  -0.00822  -0.00012  -0.00013
  28        4XY         0.00001  -0.00002  -0.00001   0.00005  -0.00004
  29        4XZ         0.00001  -0.00001   0.00006  -0.00002  -0.00003
  30        4YZ         0.00001  -0.00002  -0.00003  -0.00003   0.00001
  31 3   H  1S         -0.00002  -0.00001   0.00031  -0.00006  -0.00002
  32        2S         -0.00018  -0.00018  -0.00123   0.00030  -0.00012
  33        3PX         0.00001  -0.00000  -0.00013   0.00003  -0.00003
  34        3PY         0.00001  -0.00002   0.00005  -0.00001   0.00001
  35        3PZ        -0.00004  -0.00004  -0.00013   0.00002  -0.00001
  36 4   P  1S          0.99625   0.00014   0.00000   0.00001  -0.00000
  37        2S          0.01418  -0.00001   0.00004  -0.00003  -0.00003
  38        2PX         0.00002   0.00001  -0.00001  -0.00002   0.00001
  39        2PY        -0.00000   0.00000  -0.00000   0.00005  -0.00001
  40        2PZ        -0.00003  -0.00000  -0.00000   0.00003   0.00003
  41        3S         -0.02724   0.00003   0.00027   0.00025  -0.00028
  42        3PX        -0.00013  -0.00009   0.00011   0.00013  -0.00005
  43        3PY        -0.00008  -0.00005   0.00007  -0.00012   0.00007
  44        3PZ         0.00006   0.00003  -0.00003  -0.00015  -0.00022
  45        4S          0.00286   0.00019  -0.00104  -0.00266   0.00075
  46        4PX         0.00018   0.00009  -0.00039  -0.00071   0.00002
  47        4PY         0.00023  -0.00004  -0.00001   0.00131   0.00026
  48        4PZ         0.00011  -0.00004   0.00042   0.00175  -0.00015
  49        5XX         0.00944  -0.00003   0.00003  -0.00004  -0.00000
  50        5YY         0.00944  -0.00006  -0.00002   0.00025   0.00012
  51        5ZZ         0.00950  -0.00001  -0.00003  -0.00007   0.00005
  52        5XY        -0.00002  -0.00003  -0.00001  -0.00007   0.00000
  53        5XZ         0.00000   0.00001  -0.00002  -0.00005   0.00001
  54        5YZ         0.00003   0.00002  -0.00002   0.00008  -0.00004
  55 5   P  1S         -0.00014   0.99625   0.00000   0.00000   0.00001
  56        2S         -0.00003   0.01417   0.00002   0.00003   0.00003
  57        2PX         0.00000  -0.00003  -0.00001  -0.00000   0.00006
  58        2PY        -0.00001  -0.00003   0.00000  -0.00000   0.00001
  59        2PZ        -0.00001  -0.00000  -0.00001  -0.00000   0.00004
  60        3S         -0.00001  -0.02724   0.00015   0.00016   0.00026
  61        3PX        -0.00001  -0.00002   0.00007   0.00001  -0.00009
  62        3PY         0.00010   0.00015  -0.00010  -0.00000  -0.00016
  63        3PZ         0.00005   0.00007   0.00001   0.00001  -0.00011
  64        4S          0.00030   0.00300  -0.00061  -0.00075  -0.00349
  65        4PX        -0.00007   0.00000  -0.00010   0.00046   0.00176
  66        4PY        -0.00018  -0.00029   0.00020   0.00042   0.00168
  67        4PZ         0.00003   0.00002   0.00023  -0.00001   0.00014
  68        5XX        -0.00003   0.00946  -0.00000   0.00002   0.00026
  69        5YY        -0.00010   0.00940  -0.00001   0.00000   0.00004
  70        5ZZ        -0.00002   0.00947  -0.00002   0.00000   0.00004
  71        5XY        -0.00002   0.00001  -0.00003  -0.00002  -0.00007
  72        5XZ        -0.00001   0.00000  -0.00002  -0.00001   0.00019
  73        5YZ        -0.00001  -0.00001   0.00001  -0.00001   0.00000
  74 6   O  1S         -0.00001   0.00001  -0.00003   0.00021  -0.00015
  75        2S         -0.00006   0.00006  -0.00013  -0.00021  -0.00012
  76        2PX        -0.00006   0.00002  -0.00003  -0.00001   0.00005
  77        2PY         0.00000   0.00001  -0.00001  -0.00002  -0.00004
  78        2PZ        -0.00007   0.00001   0.00002   0.00005   0.00002
  79        3S          0.00081  -0.00024   0.00054   0.00137   0.00057
  80        3PX         0.00022  -0.00010   0.00024   0.00031  -0.00018
  81        3PY        -0.00001  -0.00003  -0.00004  -0.00015   0.00035
  82        3PZ         0.00026  -0.00005  -0.00006  -0.00010  -0.00011
  83        4XX        -0.00016   0.00004  -0.00005  -0.00012  -0.00009
  84        4YY        -0.00001   0.00004  -0.00009  -0.00027  -0.00002
  85        4ZZ        -0.00014   0.00006  -0.00009  -0.00016  -0.00007
  86        4XY         0.00003  -0.00001   0.00001   0.00006   0.00003
  87        4XZ        -0.00014  -0.00002  -0.00001  -0.00002  -0.00003
  88        4YZ         0.00003  -0.00000  -0.00001   0.00001   0.00000
  89 7   H  1S         -0.00006   0.00002  -0.00003   0.00007  -0.00007
  90        2S         -0.00019  -0.00003   0.00014  -0.00008  -0.00097
  91        3PX         0.00002  -0.00001   0.00000  -0.00001  -0.00016
  92        3PY        -0.00001  -0.00000  -0.00003  -0.00005  -0.00011
  93        3PZ         0.00001  -0.00001   0.00001  -0.00001  -0.00001
  94 8   O  1S         -0.00002   0.00000   0.00002   0.99270  -0.00008
  95        2S         -0.00009   0.00001  -0.00015   0.02580   0.00000
  96        2PX         0.00003  -0.00000  -0.00002  -0.00016  -0.00000
  97        2PY        -0.00008  -0.00000  -0.00003   0.00022  -0.00001
  98        2PZ        -0.00005  -0.00000   0.00000   0.00098  -0.00000
  99        3S          0.00092  -0.00007   0.00072   0.01263  -0.00003
 100        3PX        -0.00013   0.00001   0.00007   0.00003   0.00002
 101        3PY         0.00026  -0.00001   0.00022   0.00055  -0.00000
 102        3PZ         0.00025   0.00000  -0.00006  -0.00036   0.00000
 103        4XX        -0.00006   0.00000  -0.00011  -0.00821  -0.00000
 104        4YY        -0.00026   0.00001  -0.00009  -0.00825  -0.00001
 105        4ZZ        -0.00000  -0.00000  -0.00012  -0.00823  -0.00001
 106        4XY         0.00004   0.00000   0.00001   0.00002   0.00001
 107        4XZ         0.00000  -0.00000  -0.00000   0.00001   0.00000
 108        4YZ        -0.00010   0.00000  -0.00001  -0.00003   0.00001
 109 9   H  1S         -0.00011   0.00001   0.00000   0.00042   0.00001
 110        2S         -0.00021  -0.00002   0.00004  -0.00089   0.00002
 111        3PX        -0.00000  -0.00000  -0.00000   0.00000  -0.00000
 112        3PY         0.00000  -0.00000   0.00000  -0.00008   0.00001
 113        3PZ         0.00002  -0.00000  -0.00001   0.00004  -0.00001
 114 10  O  1S          0.00001   0.00000   0.00000   0.00000  -0.00010
 115        2S          0.00007  -0.00001   0.00002  -0.00007  -0.00021
 116        2PX         0.00000  -0.00001   0.00000   0.00001   0.00002
 117        2PY        -0.00001   0.00000  -0.00000  -0.00000   0.00002
 118        2PZ        -0.00002   0.00010  -0.00001   0.00000   0.00001
 119        3S         -0.00025   0.00054  -0.00009   0.00042   0.00120
 120        3PX        -0.00000  -0.00001  -0.00000  -0.00009  -0.00013
 121        3PY         0.00006  -0.00003   0.00000  -0.00005  -0.00017
 122        3PZ         0.00013  -0.00030   0.00002  -0.00005  -0.00039
 123        4XX         0.00005   0.00002   0.00003  -0.00004  -0.00013
 124        4YY         0.00003   0.00004   0.00002  -0.00004  -0.00008
 125        4ZZ         0.00003  -0.00023   0.00002  -0.00005  -0.00008
 126        4XY        -0.00001   0.00002   0.00000   0.00000   0.00000
 127        4XZ        -0.00001   0.00005   0.00000   0.00001  -0.00001
 128        4YZ        -0.00002  -0.00001  -0.00001  -0.00000   0.00002
 129 11  H  1S          0.00001  -0.00004   0.00001  -0.00002  -0.00009
 130        2S         -0.00019  -0.00020  -0.00002  -0.00017   0.00032
 131        3PX         0.00000   0.00000  -0.00001  -0.00001  -0.00002
 132        3PY         0.00001  -0.00000  -0.00001  -0.00002   0.00000
 133        3PZ         0.00001  -0.00000  -0.00000   0.00001  -0.00005
 134 12  O  1S          0.00001  -0.00001   0.00000   0.00006   0.99266
 135        2S          0.00006  -0.00002  -0.00012  -0.00009   0.02566
 136        2PX         0.00001  -0.00005  -0.00003   0.00000   0.00045
 137        2PY        -0.00000  -0.00002   0.00002  -0.00000   0.00080
 138        2PZ         0.00000  -0.00002   0.00002  -0.00001   0.00006
 139        3S         -0.00028   0.00066   0.00051   0.00048   0.01316
 140        3PX        -0.00004   0.00028   0.00018   0.00005   0.00024
 141        3PY         0.00006   0.00020  -0.00016  -0.00003  -0.00081
 142        3PZ        -0.00005   0.00012  -0.00006   0.00007   0.00035
 143        4XX         0.00004  -0.00020  -0.00007  -0.00006  -0.00838
 144        4YY         0.00000   0.00004  -0.00010  -0.00004  -0.00841
 145        4ZZ         0.00003  -0.00008  -0.00009  -0.00005  -0.00835
 146        4XY         0.00001   0.00004  -0.00002  -0.00000   0.00001
 147        4XZ         0.00000  -0.00010  -0.00001   0.00001  -0.00001
 148        4YZ         0.00001  -0.00000   0.00001  -0.00000   0.00002
 149 13  H  1S          0.00001  -0.00012   0.00001  -0.00003   0.00053
 150        2S          0.00001  -0.00020   0.00004   0.00003  -0.00096
 151        3PX         0.00000   0.00001  -0.00001   0.00000  -0.00002
 152        3PY        -0.00001   0.00002  -0.00002   0.00000  -0.00001
 153        3PZ         0.00001   0.00000   0.00002  -0.00000  -0.00001
 154 14  O  1S         -0.00000   0.00000  -0.00002   0.00000  -0.00002
 155        2S         -0.00001  -0.00008  -0.00010   0.00004   0.00012
 156        2PX         0.00000   0.00014   0.00000   0.00001  -0.00000
 157        2PY        -0.00000   0.00013   0.00003   0.00001   0.00002
 158        2PZ         0.00000  -0.00006   0.00001   0.00001   0.00004
 159        3S          0.00006   0.00064   0.00046  -0.00023  -0.00059
 160        3PX        -0.00001  -0.00032  -0.00005  -0.00002  -0.00013
 161        3PY         0.00001  -0.00025  -0.00015  -0.00003  -0.00015
 162        3PZ         0.00000   0.00013  -0.00005  -0.00004  -0.00014
 163        4XX        -0.00001  -0.00006  -0.00007   0.00003   0.00011
 164        4YY        -0.00001  -0.00008  -0.00006   0.00003   0.00014
 165        4ZZ        -0.00001   0.00001  -0.00008   0.00003   0.00010
 166        4XY         0.00001  -0.00013   0.00001   0.00000   0.00003
 167        4XZ        -0.00000   0.00005   0.00000   0.00000  -0.00002
 168        4YZ        -0.00000   0.00005   0.00001   0.00000   0.00002
 169 15  O  1S          0.00001   0.00001   0.00000  -0.00002  -0.00001
 170        2S         -0.00003   0.00005   0.00001   0.00010  -0.00007
 171        2PX        -0.00003   0.00001  -0.00001  -0.00002   0.00000
 172        2PY         0.00003   0.00000  -0.00000   0.00002  -0.00003
 173        2PZ         0.00017  -0.00001  -0.00000  -0.00002   0.00003
 174        3S          0.00040  -0.00017  -0.00007  -0.00056   0.00024
 175        3PX         0.00004  -0.00005   0.00005   0.00013   0.00002
 176        3PY        -0.00009  -0.00001  -0.00000  -0.00015   0.00008
 177        3PZ        -0.00034   0.00009  -0.00002  -0.00005  -0.00015
 178        4XX         0.00005   0.00002   0.00002   0.00010  -0.00008
 179        4YY         0.00007   0.00002   0.00003   0.00008  -0.00004
 180        4ZZ        -0.00018   0.00001   0.00002   0.00011  -0.00002
 181        4XY         0.00002  -0.00001  -0.00001   0.00001   0.00000
 182        4XZ         0.00007   0.00001  -0.00000  -0.00002  -0.00002
 183        4YZ        -0.00004   0.00001   0.00001   0.00003  -0.00002
 184 16  C  1S         -0.00001  -0.00002   0.00001  -0.00002   0.00001
 185        2S          0.00000  -0.00005   0.00010  -0.00010   0.00008
 186        2PX         0.00003   0.00003   0.00000  -0.00001   0.00001
 187        2PY         0.00001  -0.00004  -0.00000  -0.00001  -0.00002
 188        2PZ         0.00000   0.00002  -0.00009  -0.00002   0.00002
 189        3S         -0.00020   0.00034   0.00017   0.00060  -0.00081
 190        3PX         0.00012   0.00019  -0.00021  -0.00022   0.00050
 191        3PY        -0.00019   0.00003   0.00013  -0.00005  -0.00020
 192        3PZ         0.00021  -0.00004   0.00040   0.00001  -0.00012
 193        4XX        -0.00005  -0.00004   0.00001   0.00001  -0.00002
 194        4YY        -0.00000  -0.00007   0.00002   0.00001  -0.00000
 195        4ZZ        -0.00002  -0.00004  -0.00005  -0.00002   0.00001
 196        4XY         0.00001   0.00002   0.00001   0.00001   0.00003
 197        4XZ        -0.00001  -0.00000  -0.00003   0.00001  -0.00000
 198        4YZ        -0.00001   0.00001   0.00000   0.00000   0.00001
 199 17  C  1S         -0.00001   0.00001  -0.00002  -0.00000  -0.00000
 200        2S         -0.00004   0.00007  -0.00012  -0.00000  -0.00001
 201        2PX         0.00002  -0.00002  -0.00007   0.00001  -0.00001
 202        2PY         0.00000   0.00000  -0.00001  -0.00000  -0.00001
 203        2PZ         0.00000  -0.00002  -0.00003   0.00001  -0.00001
 204        3S          0.00023  -0.00027   0.00087   0.00001   0.00012
 205        3PX        -0.00019   0.00035   0.00018  -0.00009   0.00011
 206        3PY        -0.00003   0.00002  -0.00007   0.00005   0.00014
 207        3PZ        -0.00002   0.00007  -0.00021  -0.00006   0.00014
 208        4XX        -0.00000  -0.00001   0.00000  -0.00001  -0.00000
 209        4YY        -0.00002   0.00001  -0.00000  -0.00000   0.00001
 210        4ZZ        -0.00002   0.00001   0.00001  -0.00000  -0.00001
 211        4XY         0.00001   0.00001  -0.00001  -0.00000  -0.00001
 212        4XZ        -0.00000   0.00000   0.00004   0.00000   0.00000
 213        4YZ         0.00000   0.00000   0.00001   0.00000   0.00000
 214 18  H  1S          0.00000  -0.00001   0.00006   0.00003   0.00001
 215        2S         -0.00025   0.00001   0.00016  -0.00012   0.00005
 216        3PX         0.00004  -0.00001  -0.00002  -0.00002  -0.00003
 217        3PY        -0.00002   0.00001   0.00001  -0.00002   0.00001
 218        3PZ        -0.00001   0.00001  -0.00005  -0.00002   0.00000
 219 19  H  1S          0.00001   0.00001  -0.00005  -0.00005   0.00005
 220        2S         -0.00025  -0.00019  -0.00028  -0.00002   0.00021
 221        3PX         0.00004   0.00001   0.00003   0.00000  -0.00001
 222        3PY         0.00001  -0.00004  -0.00001   0.00000   0.00001
 223        3PZ         0.00002   0.00001   0.00001  -0.00001  -0.00001
 224 20  C  1S          0.00000   0.00000   0.00001  -0.00000   0.00000
 225        2S          0.00002   0.00001   0.00005  -0.00001   0.00001
 226        2PX        -0.00000   0.00000   0.00002  -0.00000  -0.00001
 227        2PY        -0.00000  -0.00000   0.00000  -0.00000  -0.00001
 228        2PZ         0.00000   0.00000   0.00003  -0.00000   0.00000
 229        3S         -0.00009  -0.00014  -0.00037   0.00010  -0.00005
 230        3PX         0.00002   0.00006   0.00003  -0.00003   0.00018
 231        3PY         0.00006  -0.00003  -0.00018   0.00007  -0.00001
 232        3PZ        -0.00002  -0.00001  -0.00006  -0.00001  -0.00005
 233        4XX         0.00000   0.00000  -0.00001   0.00000   0.00001
 234        4YY         0.00001   0.00000   0.00001  -0.00000   0.00000
 235        4ZZ         0.00000   0.00000  -0.00001  -0.00000   0.00001
 236        4XY        -0.00001   0.00000   0.00001  -0.00000   0.00001
 237        4XZ         0.00000  -0.00000  -0.00001   0.00000  -0.00000
 238        4YZ        -0.00000   0.00000   0.00001  -0.00000   0.00000
 239 21  H  1S         -0.00002   0.00004   0.00008  -0.00001   0.00001
 240        2S         -0.00002   0.00002  -0.00067  -0.00001   0.00007
 241        3PX         0.00001  -0.00002   0.00002   0.00000  -0.00001
 242        3PY        -0.00000   0.00000  -0.00000  -0.00000  -0.00001
 243        3PZ         0.00000  -0.00000  -0.00006   0.00000   0.00000
 244 22  H  1S         -0.00001   0.00002  -0.00006   0.00000   0.00000
 245        2S         -0.00000  -0.00013   0.00007  -0.00005  -0.00026
 246        3PX         0.00001   0.00001  -0.00003   0.00001   0.00000
 247        3PY        -0.00000   0.00000  -0.00000  -0.00000   0.00001
 248        3PZ         0.00000  -0.00001  -0.00000   0.00001  -0.00000
 249 23  H  1S          0.00000   0.00000   0.00003  -0.00000   0.00001
 250        2S          0.00004   0.00004   0.00012  -0.00001   0.00001
 251        3PX        -0.00000  -0.00000  -0.00000  -0.00000  -0.00001
 252        3PY        -0.00000   0.00000   0.00001  -0.00000  -0.00000
 253        3PZ        -0.00000  -0.00000  -0.00001   0.00000   0.00000
 254 24  H  1S          0.00000   0.00001  -0.00001  -0.00000   0.00001
 255        2S          0.00006  -0.00001  -0.00005   0.00005  -0.00002
 256        3PX        -0.00000  -0.00000   0.00000  -0.00000  -0.00001
 257        3PY         0.00000  -0.00000  -0.00001   0.00000  -0.00000
 258        3PZ         0.00000   0.00000   0.00000   0.00000   0.00000
 259 25  N  1S         -0.00000   0.00000   0.00000   0.00000   0.00000
 260        2S         -0.00001   0.00001   0.00001   0.00000   0.00002
 261        2PX         0.00000  -0.00000  -0.00001   0.00000  -0.00000
 262        2PY        -0.00000  -0.00000   0.00000  -0.00000  -0.00000
 263        2PZ         0.00000  -0.00000  -0.00001   0.00000  -0.00000
 264        3S          0.00002  -0.00004  -0.00002  -0.00002  -0.00014
 265        3PX        -0.00003   0.00004  -0.00001   0.00001   0.00005
 266        3PY         0.00000   0.00000  -0.00001   0.00000   0.00004
 267        3PZ        -0.00002   0.00001   0.00012  -0.00001  -0.00001
 268        4XX        -0.00000   0.00000   0.00002  -0.00000   0.00000
 269        4YY        -0.00001   0.00001   0.00001   0.00000   0.00001
 270        4ZZ        -0.00000   0.00001   0.00001  -0.00000   0.00001
 271        4XY         0.00000  -0.00000  -0.00000   0.00000  -0.00001
 272        4XZ        -0.00000  -0.00000  -0.00001   0.00000   0.00000
 273        4YZ        -0.00000   0.00000  -0.00000  -0.00000   0.00000
 274 26  H  1S          0.00001  -0.00000  -0.00001   0.00000   0.00001
 275        2S          0.00001  -0.00002  -0.00004   0.00001  -0.00001
 276        3PX        -0.00000   0.00000   0.00001  -0.00000   0.00000
 277        3PY         0.00000  -0.00000  -0.00000  -0.00000  -0.00000
 278        3PZ        -0.00000   0.00000  -0.00000   0.00000  -0.00000
 279 27  H  1S         -0.00001   0.00001   0.00001   0.00000   0.00001
 280        2S         -0.00000  -0.00000   0.00012  -0.00000  -0.00001
 281        3PX         0.00000  -0.00000  -0.00001   0.00000  -0.00000
 282        3PY        -0.00000  -0.00000   0.00000  -0.00000  -0.00000
 283        3PZ         0.00000  -0.00000   0.00001   0.00000  -0.00000
                           6         7         8         9        10
                           O         O         O         O         O
     Eigenvalues --   -19.33779 -19.32286 -19.28843 -19.27444 -14.57891
   1 1   C  1S         -0.00002  -0.00000   0.00000  -0.00000   0.00000
   2        2S         -0.00016  -0.00005  -0.00004  -0.00006  -0.00000
   3        2PX        -0.00002  -0.00002  -0.00001  -0.00004   0.00001
   4        2PY         0.00007   0.00001  -0.00002   0.00001   0.00001
   5        2PZ         0.00001  -0.00001  -0.00002   0.00004  -0.00000
   6        3S          0.00108   0.00020   0.00010   0.00004   0.00005
   7        3PX         0.00012   0.00002  -0.00043   0.00024  -0.00001
   8        3PY        -0.00095   0.00043  -0.00001  -0.00013  -0.00006
   9        3PZ        -0.00042   0.00004   0.00019  -0.00035   0.00005
  10        4XX         0.00003  -0.00002   0.00006   0.00001   0.00001
  11        4YY        -0.00002   0.00005   0.00001   0.00004   0.00000
  12        4ZZ         0.00003   0.00003   0.00003   0.00000   0.00000
  13        4XY         0.00001  -0.00002   0.00004   0.00003  -0.00000
  14        4XZ        -0.00000  -0.00001  -0.00004   0.00000   0.00000
  15        4YZ        -0.00002   0.00002   0.00000   0.00000  -0.00000
  16 2   O  1S          0.00000   0.00002   0.00001  -0.00002   0.00000
  17        2S          0.00002   0.00006   0.00004  -0.00006  -0.00000
  18        2PX         0.00001   0.00000  -0.00002   0.00001   0.00000
  19        2PY         0.00003   0.00002  -0.00002  -0.00004   0.00000
  20        2PZ         0.00001   0.00001   0.00002  -0.00001  -0.00000
  21        3S         -0.00028  -0.00021  -0.00007   0.00009   0.00002
  22        3PX        -0.00013  -0.00001   0.00010  -0.00003  -0.00001
  23        3PY        -0.00006  -0.00009   0.00006   0.00015   0.00001
  24        3PZ        -0.00026  -0.00011  -0.00006  -0.00002   0.00001
  25        4XX         0.00004   0.00004   0.00005  -0.00006   0.00000
  26        4YY         0.00001   0.00005   0.00004  -0.00004   0.00000
  27        4ZZ        -0.00005   0.00003   0.00003  -0.00007   0.00000
  28        4XY         0.00002  -0.00000  -0.00000   0.00001  -0.00000
  29        4XZ         0.00000   0.00000   0.00002  -0.00001   0.00000
  30        4YZ         0.00001  -0.00001  -0.00000   0.00001   0.00000
  31 3   H  1S          0.00001   0.00002   0.00003  -0.00007  -0.00001
  32        2S         -0.00009  -0.00012  -0.00017   0.00009   0.00000
  33        3PX        -0.00002  -0.00000  -0.00001   0.00001  -0.00000
  34        3PY         0.00002   0.00001  -0.00000  -0.00002   0.00000
  35        3PZ        -0.00000  -0.00001  -0.00002   0.00000  -0.00000
  36 4   P  1S          0.00001  -0.00000   0.00002   0.00000  -0.00000
  37        2S         -0.00002  -0.00004  -0.00004   0.00007   0.00000
  38        2PX         0.00005   0.00001  -0.00001  -0.00001   0.00000
  39        2PY        -0.00001  -0.00000  -0.00000  -0.00000   0.00000
  40        2PZ         0.00005  -0.00001  -0.00000   0.00000  -0.00000
  41        3S          0.00027  -0.00029   0.00094   0.00028   0.00000
  42        3PX        -0.00011  -0.00009   0.00011   0.00013  -0.00001
  43        3PY         0.00007  -0.00002   0.00009   0.00006  -0.00000
  44        3PZ        -0.00018   0.00010   0.00015  -0.00002   0.00000
  45        4S         -0.00287   0.00135  -0.00372  -0.00133  -0.00005
  46        4PX         0.00068   0.00008  -0.00021  -0.00004  -0.00002
  47        4PY        -0.00008   0.00082  -0.00083  -0.00107  -0.00000
  48        4PZ         0.00175   0.00011  -0.00199   0.00001   0.00001
  49        5XX         0.00009   0.00002  -0.00022   0.00006  -0.00001
  50        5YY        -0.00004   0.00001  -0.00026   0.00005  -0.00000
  51        5ZZ         0.00008   0.00009  -0.00008   0.00004  -0.00000
  52        5XY        -0.00005   0.00001   0.00001   0.00001  -0.00000
  53        5XZ         0.00023  -0.00000  -0.00007  -0.00002   0.00000
  54        5YZ        -0.00010   0.00002   0.00000   0.00000  -0.00000
  55 5   P  1S         -0.00000   0.00001  -0.00000   0.00001  -0.00000
  56        2S         -0.00004  -0.00000  -0.00004  -0.00015  -0.00000
  57        2PX         0.00001   0.00001  -0.00000   0.00001   0.00000
  58        2PY         0.00000   0.00002  -0.00000   0.00001   0.00000
  59        2PZ         0.00000  -0.00006  -0.00001  -0.00000   0.00000
  60        3S         -0.00021   0.00045  -0.00030   0.00046  -0.00001
  61        3PX        -0.00003  -0.00003   0.00004   0.00011   0.00000
  62        3PY         0.00000  -0.00018   0.00006   0.00011   0.00000
  63        3PZ         0.00001   0.00021   0.00010  -0.00005  -0.00000
  64        4S          0.00128  -0.00346   0.00094  -0.00102   0.00005
  65        4PX        -0.00047   0.00033  -0.00044  -0.00221   0.00004
  66        4PY        -0.00062   0.00057  -0.00044  -0.00223  -0.00000
  67        4PZ         0.00002  -0.00153   0.00014   0.00107   0.00000
  68        5XX         0.00002  -0.00009  -0.00000  -0.00025  -0.00000
  69        5YY         0.00002  -0.00009   0.00001  -0.00024   0.00001
  70        5ZZ         0.00002   0.00028   0.00005  -0.00026   0.00000
  71        5XY        -0.00001  -0.00007   0.00003   0.00002   0.00000
  72        5XZ         0.00002  -0.00008  -0.00003  -0.00004  -0.00000
  73        5YZ        -0.00001  -0.00002  -0.00002  -0.00002   0.00000
  74 6   O  1S          0.99269   0.00008   0.00005  -0.00004  -0.00000
  75        2S          0.02576   0.00014  -0.00004  -0.00012  -0.00000
  76        2PX         0.00038   0.00001   0.00002  -0.00001  -0.00000
  77        2PY         0.00074   0.00001  -0.00001  -0.00001  -0.00000
  78        2PZ         0.00051   0.00003  -0.00004  -0.00003   0.00000
  79        3S          0.01285  -0.00066   0.00019   0.00064   0.00001
  80        3PX         0.00031  -0.00012   0.00002   0.00011   0.00001
  81        3PY        -0.00015  -0.00010   0.00008   0.00008  -0.00000
  82        3PZ         0.00013  -0.00017   0.00037   0.00017   0.00000
  83        4XX        -0.00825   0.00009  -0.00000  -0.00008  -0.00000
  84        4YY        -0.00819   0.00009   0.00001  -0.00009  -0.00000
  85        4ZZ        -0.00827   0.00009   0.00002  -0.00007  -0.00000
  86        4XY        -0.00000  -0.00000   0.00000  -0.00000   0.00000
  87        4XZ        -0.00005  -0.00001   0.00004   0.00001   0.00000
  88        4YZ         0.00001  -0.00001  -0.00002   0.00001  -0.00000
  89 7   H  1S          0.00035   0.00005  -0.00006  -0.00004  -0.00000
  90        2S         -0.00124  -0.00004   0.00016   0.00008   0.00000
  91        3PX        -0.00007  -0.00000   0.00001   0.00001  -0.00000
  92        3PY         0.00011  -0.00000   0.00000   0.00001  -0.00000
  93        3PZ        -0.00001  -0.00000   0.00003   0.00000   0.00000
  94 8   O  1S         -0.00032  -0.00003   0.00005   0.00003  -0.00000
  95        2S         -0.00019  -0.00003  -0.00003   0.00006  -0.00000
  96        2PX         0.00000   0.00001  -0.00001  -0.00001  -0.00000
  97        2PY         0.00002  -0.00000  -0.00001   0.00000  -0.00000
  98        2PZ         0.00003   0.00000  -0.00004   0.00000   0.00000
  99        3S          0.00117   0.00015   0.00018  -0.00030   0.00002
 100        3PX        -0.00007  -0.00003   0.00003   0.00004   0.00000
 101        3PY         0.00022   0.00001   0.00020  -0.00004   0.00001
 102        3PZ        -0.00018  -0.00004   0.00033   0.00001  -0.00000
 103        4XX        -0.00015  -0.00002   0.00002   0.00004  -0.00000
 104        4YY        -0.00015  -0.00003   0.00005   0.00005  -0.00000
 105        4ZZ        -0.00014  -0.00004   0.00000   0.00006  -0.00000
 106        4XY         0.00006   0.00000   0.00000   0.00000  -0.00000
 107        4XZ        -0.00006  -0.00000   0.00001   0.00000   0.00000
 108        4YZ         0.00003   0.00001   0.00001  -0.00001   0.00000
 109 9   H  1S          0.00001   0.00001  -0.00008   0.00001  -0.00000
 110        2S          0.00002   0.00008   0.00025  -0.00016   0.00000
 111        3PX         0.00001   0.00000  -0.00001  -0.00000   0.00000
 112        3PY         0.00001   0.00001   0.00002  -0.00002   0.00000
 113        3PZ        -0.00003  -0.00001   0.00003   0.00001  -0.00000
 114 10  O  1S         -0.00001   0.99266   0.00000   0.00004   0.00000
 115        2S          0.00014   0.02565  -0.00011   0.00013   0.00000
 116        2PX        -0.00001  -0.00028   0.00002  -0.00004   0.00000
 117        2PY        -0.00001  -0.00062   0.00002  -0.00002  -0.00000
 118        2PZ        -0.00002  -0.00055  -0.00005  -0.00005  -0.00000
 119        3S         -0.00068   0.01344   0.00056  -0.00061  -0.00002
 120        3PX         0.00006  -0.00000  -0.00022   0.00029  -0.00001
 121        3PY         0.00008  -0.00013  -0.00032   0.00025  -0.00000
 122        3PZ         0.00017  -0.00032   0.00029   0.00018   0.00001
 123        4XX         0.00009  -0.00832  -0.00005   0.00006   0.00000
 124        4YY         0.00009  -0.00831  -0.00001   0.00006   0.00000
 125        4ZZ         0.00009  -0.00840  -0.00011   0.00008   0.00000
 126        4XY        -0.00000   0.00001   0.00005  -0.00004   0.00000
 127        4XZ        -0.00001   0.00001  -0.00001  -0.00002   0.00000
 128        4YZ        -0.00001  -0.00000  -0.00002   0.00000  -0.00000
 129 11  H  1S          0.00003   0.00037  -0.00015   0.00015  -0.00000
 130        2S         -0.00008  -0.00161  -0.00104  -0.00030  -0.00000
 131        3PX        -0.00001  -0.00004   0.00001   0.00001  -0.00000
 132        3PY         0.00000  -0.00002   0.00006   0.00004  -0.00000
 133        3PZ         0.00000   0.00006   0.00004   0.00003   0.00000
 134 12  O  1S          0.00013   0.00004   0.00000   0.00009  -0.00000
 135        2S          0.00004  -0.00009   0.00003   0.00014  -0.00000
 136        2PX         0.00004   0.00001   0.00001  -0.00002  -0.00000
 137        2PY         0.00001  -0.00001   0.00002  -0.00001   0.00000
 138        2PZ         0.00002  -0.00003  -0.00002   0.00005  -0.00000
 139        3S         -0.00027   0.00058  -0.00026  -0.00074   0.00002
 140        3PX        -0.00027   0.00011  -0.00004   0.00016   0.00000
 141        3PY        -0.00012  -0.00001  -0.00009   0.00013  -0.00001
 142        3PZ        -0.00014   0.00030   0.00004  -0.00026   0.00001
 143        4XX         0.00003  -0.00003   0.00002   0.00015  -0.00000
 144        4YY         0.00005  -0.00003  -0.00002   0.00012  -0.00000
 145        4ZZ         0.00000  -0.00006   0.00001   0.00010  -0.00000
 146        4XY         0.00002  -0.00001   0.00001  -0.00001  -0.00000
 147        4XZ        -0.00001   0.00003   0.00000  -0.00000   0.00000
 148        4YZ         0.00000  -0.00000  -0.00002   0.00001   0.00000
 149 13  H  1S          0.00001  -0.00005   0.00007  -0.00002   0.00000
 150        2S         -0.00001   0.00011  -0.00000   0.00027   0.00000
 151        3PX         0.00003   0.00001   0.00000   0.00004   0.00000
 152        3PY         0.00001  -0.00000  -0.00002   0.00002  -0.00000
 153        3PZ         0.00001   0.00001  -0.00000   0.00003   0.00000
 154 14  O  1S          0.00000  -0.00004   0.00004   0.99270   0.00000
 155        2S         -0.00002  -0.00011  -0.00004   0.02563   0.00001
 156        2PX        -0.00000  -0.00002   0.00000  -0.00066  -0.00000
 157        2PY        -0.00001  -0.00001  -0.00000  -0.00066   0.00000
 158        2PZ        -0.00001  -0.00004  -0.00000   0.00027   0.00000
 159        3S          0.00015   0.00066   0.00023   0.01299  -0.00004
 160        3PX         0.00002  -0.00014   0.00002  -0.00027   0.00001
 161        3PY         0.00006  -0.00015   0.00002  -0.00029   0.00001
 162        3PZ         0.00003   0.00034   0.00000   0.00006  -0.00000
 163        4XX        -0.00003  -0.00002  -0.00005  -0.00822   0.00000
 164        4YY        -0.00002  -0.00003  -0.00005  -0.00821   0.00000
 165        4ZZ        -0.00002  -0.00008  -0.00004  -0.00825   0.00000
 166        4XY        -0.00000   0.00000  -0.00001   0.00002  -0.00000
 167        4XZ        -0.00000  -0.00002   0.00000  -0.00001   0.00000
 168        4YZ        -0.00000  -0.00004   0.00000  -0.00001  -0.00000
 169 15  O  1S         -0.00003  -0.00001   0.99267  -0.00008  -0.00000
 170        2S          0.00004   0.00005   0.02551  -0.00011  -0.00000
 171        2PX         0.00004  -0.00000   0.00019   0.00001  -0.00000
 172        2PY        -0.00001  -0.00001  -0.00016  -0.00001   0.00000
 173        2PZ        -0.00000  -0.00004  -0.00083   0.00000   0.00000
 174        3S         -0.00018  -0.00029   0.01343   0.00059   0.00001
 175        3PX        -0.00021   0.00006   0.00033  -0.00002   0.00000
 176        3PY         0.00002   0.00020   0.00023   0.00008  -0.00000
 177        3PZ        -0.00021   0.00032  -0.00042  -0.00009  -0.00000
 178        4XX         0.00002   0.00003  -0.00834  -0.00006  -0.00000
 179        4YY         0.00006   0.00008  -0.00830  -0.00009  -0.00000
 180        4ZZ         0.00010  -0.00002  -0.00834  -0.00007  -0.00000
 181        4XY         0.00002   0.00002   0.00004  -0.00001  -0.00000
 182        4XZ         0.00001   0.00001  -0.00001   0.00002   0.00000
 183        4YZ         0.00001   0.00002   0.00001  -0.00000  -0.00000
 184 16  C  1S          0.00002  -0.00002  -0.00001  -0.00001   0.00000
 185        2S          0.00008  -0.00009  -0.00004  -0.00002   0.00001
 186        2PX        -0.00003  -0.00000   0.00008   0.00001  -0.00001
 187        2PY        -0.00001  -0.00007   0.00005  -0.00003   0.00000
 188        2PZ         0.00002   0.00001  -0.00002  -0.00001  -0.00000
 189        3S         -0.00055   0.00039  -0.00008  -0.00010  -0.00020
 190        3PX         0.00056   0.00000  -0.00090  -0.00016   0.00002
 191        3PY         0.00011   0.00050  -0.00042   0.00007  -0.00006
 192        3PZ         0.00032  -0.00005   0.00008   0.00020   0.00004
 193        4XX         0.00000  -0.00003  -0.00003  -0.00001   0.00000
 194        4YY         0.00003  -0.00005  -0.00001  -0.00002   0.00000
 195        4ZZ         0.00001  -0.00004  -0.00001  -0.00003   0.00000
 196        4XY         0.00001  -0.00001  -0.00002  -0.00001   0.00000
 197        4XZ        -0.00004  -0.00000   0.00002  -0.00001  -0.00001
 198        4YZ        -0.00000   0.00000   0.00000  -0.00000  -0.00000
 199 17  C  1S          0.00000   0.00001  -0.00002  -0.00002   0.00000
 200        2S          0.00002   0.00006  -0.00010  -0.00009   0.00006
 201        2PX         0.00001   0.00004  -0.00001   0.00000   0.00000
 202        2PY         0.00000  -0.00001  -0.00001  -0.00000   0.00001
 203        2PZ         0.00000  -0.00002   0.00002  -0.00001  -0.00000
 204        3S         -0.00022  -0.00056   0.00087   0.00056  -0.00004
 205        3PX        -0.00001   0.00004  -0.00041  -0.00008  -0.00025
 206        3PY         0.00000  -0.00010  -0.00014   0.00008   0.00003
 207        3PZ        -0.00013   0.00003   0.00009   0.00014   0.00007
 208        4XX        -0.00000  -0.00001   0.00001  -0.00002  -0.00007
 209        4YY         0.00000   0.00000  -0.00002   0.00001   0.00000
 210        4ZZ         0.00000  -0.00001  -0.00002  -0.00006  -0.00000
 211        4XY        -0.00000   0.00002   0.00002  -0.00001   0.00000
 212        4XZ         0.00001   0.00000  -0.00002   0.00001  -0.00000
 213        4YZ         0.00001  -0.00001  -0.00001   0.00000  -0.00000
 214 18  H  1S          0.00004   0.00003  -0.00007   0.00002   0.00000
 215        2S          0.00014   0.00024  -0.00013   0.00005   0.00001
 216        3PX        -0.00002  -0.00001   0.00004   0.00002  -0.00000
 217        3PY        -0.00000   0.00002  -0.00000   0.00001   0.00000
 218        3PZ        -0.00000   0.00001  -0.00001  -0.00001  -0.00000
 219 19  H  1S          0.00004  -0.00002  -0.00005  -0.00004  -0.00000
 220        2S         -0.00027   0.00006   0.00018  -0.00010   0.00001
 221        3PX        -0.00001  -0.00002   0.00000   0.00001  -0.00000
 222        3PY        -0.00001  -0.00000   0.00002  -0.00002   0.00000
 223        3PZ         0.00001   0.00000  -0.00000  -0.00000  -0.00000
 224 20  C  1S          0.00000  -0.00000  -0.00000   0.00001  -0.00001
 225        2S          0.00000  -0.00001  -0.00000   0.00003   0.00004
 226        2PX        -0.00001  -0.00001   0.00001   0.00001   0.00025
 227        2PY        -0.00000   0.00002  -0.00000  -0.00000   0.00014
 228        2PZ        -0.00000   0.00001  -0.00000   0.00000  -0.00007
 229        3S          0.00010   0.00008  -0.00006  -0.00021   0.00005
 230        3PX         0.00010  -0.00001  -0.00007   0.00002  -0.00002
 231        3PY         0.00009  -0.00006  -0.00003  -0.00008  -0.00005
 232        3PZ        -0.00003  -0.00008   0.00005  -0.00002  -0.00008
 233        4XX         0.00001   0.00000  -0.00001  -0.00000   0.00013
 234        4YY         0.00001   0.00001  -0.00001   0.00001   0.00005
 235        4ZZ         0.00000   0.00000  -0.00000   0.00001   0.00002
 236        4XY         0.00000  -0.00000  -0.00000   0.00000   0.00010
 237        4XZ        -0.00000   0.00001   0.00000   0.00000  -0.00004
 238        4YZ        -0.00000  -0.00000  -0.00000   0.00000  -0.00004
[...]
 196         V                 1.749068          3.231257
 197         V                 1.764372          3.264124
 198         V                 1.785867          3.403948
 199         V                 1.821522          3.274877
 200         V                 1.861651          3.483814
 201         V                 1.869334          3.518566
 202         V                 1.887135          3.322599
 203         V                 1.894741          3.281497
 204         V                 1.907246          3.297464
 205         V                 1.926927          3.355337
 206         V                 1.937611          3.401597
 207         V                 1.959810          3.302156
 208         V                 1.995445          3.408612
 209         V                 2.003952          3.413104
 210         V                 2.016959          3.405198
 211         V                 2.037678          3.299096
 212         V                 2.043308          3.451520
 213         V                 2.070481          3.539968
 214         V                 2.080034          3.209479
 215         V                 2.094418          3.282068
 216         V                 2.121011          3.268574
 217         V                 2.162881          3.664501
 218         V                 2.171999          3.685387
 219         V                 2.185823          3.728214
 220         V                 2.208322          3.291444
 221         V                 2.217126          3.757512
 222         V                 2.226822          3.633729
 223         V                 2.237915          3.642641
 224         V                 2.260951          3.684487
 225         V                 2.301501          4.175809
 226         V                 2.318827          4.001188
 227         V                 2.329335          3.782925
 228         V                 2.342672          4.422027
 229         V                 2.362248          4.225727
 230         V                 2.368490          3.580509
 231         V                 2.433753          3.849010
 232         V                 2.439801          3.946654
 233         V                 2.461338          3.592588
 234         V                 2.469246          3.684404
 235         V                 2.476294          3.852238
 236         V                 2.485273          4.043909
 237         V                 2.491355          3.709136
 238         V                 2.498315          4.059092
 239         V                 2.507963          3.788878
 240         V                 2.528863          3.944567
 241         V                 2.537813          3.788605
 242         V                 2.539971          3.910714
 243         V                 2.575184          4.106924
 244         V                 2.605191          3.814594
 245         V                 2.610887          3.974706
 246         V                 2.635652          4.326916
 247         V                 2.655884          4.032180
 248         V                 2.673374          4.145267
 249         V                 2.688121          4.615794
 250         V                 2.722836          4.094829
 251         V                 2.726495          4.243785
 252         V                 2.732639          4.246179
 253         V                 2.753915          4.187577
 254         V                 2.767459          4.109006
 255         V                 2.786879          4.136502
 256         V                 2.884507          4.676287
 257         V                 3.051685          5.247434
 258         V                 3.097015          5.256512
 259         V                 3.117904          4.996198
 260         V                 3.173840          5.078643
 261         V                 3.194670          6.480666
 262         V                 3.207886          6.281069
 263         V                 3.216173          5.147637
 264         V                 3.260637          6.263334
 265         V                 3.288511          5.873170
 266         V                 3.297933          5.526371
 267         V                 3.312167          6.371773
 268         V                 3.353368          5.379428
 269         V                 3.368491         10.106021
 270         V                 3.399352          9.548375
 271         V                 3.413819          5.288780
 272         V                 3.651897          9.372375
 273         V                 3.768577          9.448222
 274         V                 3.813933          9.642324
 275         V                 3.869616         10.329593
 276         V                 3.912229          9.967780
 277         V                 3.958190         10.746909
 278         V                 4.049666         10.640021
 279         V                 4.130700         10.612972
 280         V                 4.158896         10.510095
 281         V                 4.249242         10.536875
 282         V                 4.384263         10.318558
 283         V                 4.559956         10.541032
 Total kinetic energy from orbitals= 1.414781778524D+03
                          Isotropic Fermi Contact Couplings
        Atom                 a.u.       MegaHertz       Gauss      10(-4) cm-1
     1  C(13)             -0.00696      -7.82165      -2.79096      -2.60902
     2  O(17)              0.02153     -13.04953      -4.65640      -4.35286
     3  H(1)              -0.00202      -9.03431      -3.22367      -3.01352
     4  P(31)              0.02820      51.06635      18.22174      17.03390
     5  P(31)             -0.00185      -3.35723      -1.19794      -1.11985
     6  O(17)             -0.00022       0.13038       0.04652       0.04349
     7  H(1)              -0.00020      -0.87247      -0.31132      -0.29103
     8  O(17)              0.00178      -1.07773      -0.38456      -0.35949
     9  H(1)              -0.00005      -0.21715      -0.07748      -0.07243
    10  O(17)             -0.00156       0.94359       0.33670       0.31475
    11  H(1)              -0.00045      -2.00973      -0.71712      -0.67037
    12  O(17)              0.00211      -1.28146      -0.45726      -0.42745
    13  H(1)               0.00005       0.20459       0.07300       0.06824
    14  O(17)              0.00753      -4.56189      -1.62779      -1.52168
    15  O(17)              0.00420      -2.54714      -0.90888      -0.84963
    16  C(13)             -0.00321      -3.61423      -1.28965      -1.20558
    17  C(13)             -0.00021      -0.24115      -0.08605      -0.08044
    18  H(1)               0.00450      20.10185       7.17284       6.70525
    19  H(1)              -0.00007      -0.30107      -0.10743      -0.10043
    20  C(13)             -0.01043     -11.72766      -4.18472      -3.91193
    21  H(1)              -0.00005      -0.22298      -0.07957      -0.07438
    22  H(1)              -0.00049      -2.19661      -0.78381      -0.73271
    23  H(1)               0.00650      29.04289      10.36322       9.68766
    24  H(1)               0.03233     144.51112      51.56516      48.20372
    25  N(14)              0.24530      79.25651      28.28070      26.43713
    26  H(1)               0.00032       1.41804       0.50599       0.47301
    27  H(1)              -0.00038      -1.71985      -0.61368      -0.57368
 --------------------------------------------------------
       Center         ----  Spin Dipole Couplings  ----
                      3XX-RR        3YY-RR        3ZZ-RR
 --------------------------------------------------------
     1   Atom       -0.025117      0.083545     -0.058428
     2   Atom       -0.125694      0.391727     -0.266032
     3   Atom        0.012467     -0.004276     -0.008192
     4   Atom        0.050890     -0.034668     -0.016222
     5   Atom       -0.044426      0.066174     -0.021749
     6   Atom        0.045546     -0.028076     -0.017470
     7   Atom        0.001748      0.000921     -0.002669
     8   Atom       -0.009242      0.025822     -0.016580
     9   Atom       -0.001905      0.001252      0.000654
    10   Atom       -0.046360      0.028753      0.017607
    11   Atom       -0.001138      0.002380     -0.001241
    12   Atom        0.030513     -0.014688     -0.015825
    13   Atom        0.000852      0.001273     -0.002125
    14   Atom       -0.095011      0.248229     -0.153218
    15   Atom        0.149271     -0.057434     -0.091836
    16   Atom        0.003960      0.005929     -0.009889
    17   Atom        0.044745     -0.022019     -0.022727
    18   Atom        0.001912      0.001633     -0.003544
    19   Atom        0.001955     -0.002794      0.000839
    20   Atom       -0.025629      0.058488     -0.032859
    21   Atom        0.005938     -0.006115      0.000177
    22   Atom        0.007478     -0.000110     -0.007367
    23   Atom       -0.003070     -0.006057      0.009127
    24   Atom       -0.005499      0.014545     -0.009046
    25   Atom       -0.493645      0.886451     -0.392805
    26   Atom        0.023912     -0.005927     -0.017986
    27   Atom       -0.043124     -0.016922      0.060046
 --------------------------------------------------------
                        XY            XZ            YZ
 --------------------------------------------------------
     1   Atom        0.077375      0.001355      0.002162
     2   Atom        0.309254     -0.012996     -0.037164
     3   Atom       -0.008039      0.016123     -0.007411
     4   Atom        0.044821     -0.071254     -0.031391
     5   Atom        0.020320      0.007944      0.026482
     6   Atom        0.008357      0.030245      0.003278
     7   Atom       -0.000935      0.000893     -0.000074
     8   Atom        0.032979      0.014519      0.023688
     9   Atom        0.001234     -0.000342     -0.001783
    10   Atom       -0.016915     -0.017586      0.072504
    11   Atom        0.004430     -0.003404     -0.000369
    12   Atom       -0.002193      0.010901     -0.001267
    13   Atom       -0.001258      0.000704     -0.000604
    14   Atom       -0.173471     -0.021578      0.060084
    15   Atom        0.125715     -0.086928     -0.042778
    16   Atom        0.010389      0.003360      0.001596
    17   Atom       -0.002405      0.001863     -0.000275
    18   Atom       -0.001513      0.000873     -0.000415
    19   Atom       -0.000183     -0.000072     -0.001201
    20   Atom        0.016103     -0.000144      0.019725
    21   Atom       -0.000583      0.005575     -0.000267
    22   Atom       -0.005088      0.001004      0.000662
    23   Atom        0.003136     -0.006230     -0.006985
    24   Atom        0.003405     -0.000481      0.004252
    25   Atom       -0.063274     -0.019130      0.383223
    26   Atom       -0.029768      0.040751     -0.008751
    27   Atom       -0.001512     -0.009500      0.003368
 --------------------------------------------------------


 ---------------------------------------------------------------------------------
              Anisotropic Spin Dipole Couplings in Principal Axis System
 ---------------------------------------------------------------------------------

       Atom             a.u.   MegaHertz   Gauss  10(-4) cm-1        Axes

              Baa    -0.0653    -8.768    -3.129    -2.925  0.8871 -0.4606 -0.0299
     1 C(13)  Bbb    -0.0585    -7.844    -2.799    -2.617  0.0201 -0.0262  0.9995
              Bcc     0.1238    16.612     5.928     5.541  0.4611  0.8872  0.0140
 
              Baa    -0.2732    19.766     7.053     6.593  0.7104 -0.3641 -0.6023
     2 O(17)  Bbb    -0.2650    19.172     6.841     6.395  0.5628 -0.2199  0.7968
              Bcc     0.5381   -38.938   -13.894   -12.988  0.4226  0.9050 -0.0487
 
              Baa    -0.0177    -9.431    -3.365    -3.146 -0.4062  0.2434  0.8808
     3 H(1)   Bbb    -0.0075    -3.980    -1.420    -1.327  0.4146  0.9080 -0.0597
              Bcc     0.0251    13.411     4.785     4.473  0.8143 -0.3409  0.4698
 
              Baa    -0.0622   -13.436    -4.794    -4.482  0.4312  0.2775  0.8586
     4 P(31)  Bbb    -0.0538   -11.628    -4.149    -3.879 -0.4338  0.8981 -0.0724
              Bcc     0.1159    25.064     8.944     8.360  0.7911  0.3412 -0.5076
 
              Baa    -0.0485   -10.493    -3.744    -3.500  0.9784 -0.1378 -0.1540
     5 P(31)  Bbb    -0.0289    -6.240    -2.227    -2.082  0.1091 -0.2884  0.9513
              Bcc     0.0774    16.733     5.971     5.582  0.1755  0.9476  0.2671
 
              Baa    -0.0296     2.145     0.765     0.716 -0.3819  0.1191  0.9165
     6 O(17)  Bbb    -0.0290     2.098     0.749     0.700 -0.0502  0.9875 -0.1492
              Bcc     0.0586    -4.243    -1.514    -1.415  0.9228  0.1030  0.3711
 
              Baa    -0.0028    -1.519    -0.542    -0.507 -0.1966 -0.0295  0.9800
     7 H(1)   Bbb     0.0004     0.195     0.070     0.065  0.4989  0.8575  0.1259
              Bcc     0.0025     1.323     0.472     0.441  0.8441 -0.5137  0.1539
 
              Baa    -0.0291     2.105     0.751     0.702  0.8724 -0.4760 -0.1112
     8 O(17)  Bbb    -0.0272     1.965     0.701     0.655 -0.0807 -0.3646  0.9277
              Bcc     0.0562    -4.069    -1.452    -1.357  0.4821  0.8003  0.3565
 
              Baa    -0.0024    -1.259    -0.449    -0.420  0.9211 -0.3718 -0.1156
     9 H(1)   Bbb    -0.0007    -0.362    -0.129    -0.121  0.3126  0.5291  0.7889
              Bcc     0.0030     1.621     0.578     0.541  0.2321  0.7627 -0.6036
 
              Baa    -0.0514     3.722     1.328     1.241  0.7957 -0.3051  0.5231
    10 O(17)  Bbb    -0.0485     3.511     1.253     1.171  0.5829  0.6202 -0.5250
              Bcc     0.1000    -7.233    -2.581    -2.413 -0.1642  0.7227  0.6714
 
              Baa    -0.0058    -3.094    -1.104    -1.032  0.7543 -0.3845  0.5322
    11 H(1)   Bbb    -0.0003    -0.172    -0.061    -0.057 -0.2725  0.5542  0.7866
              Bcc     0.0061     3.266     1.165     1.089  0.5974  0.7383 -0.3132
 
              Baa    -0.0184     1.333     0.476     0.445 -0.2041  0.2051  0.9572
    12 O(17)  Bbb    -0.0147     1.060     0.378     0.354  0.0932  0.9774 -0.1895
              Bcc     0.0331    -2.393    -0.854    -0.798  0.9745 -0.0505  0.2186
 
              Baa    -0.0023    -1.236    -0.441    -0.412 -0.1767  0.1029  0.9789
    13 H(1)   Bbb    -0.0002    -0.108    -0.039    -0.036  0.7464  0.6624  0.0651
              Bcc     0.0025     1.344     0.480     0.448 -0.6417  0.7421 -0.1938
 
              Baa    -0.1688    12.217     4.359     4.075  0.8228  0.4003 -0.4033
    14 O(17)  Bbb    -0.1602    11.594     4.137     3.867  0.4216  0.0458  0.9056
              Bcc     0.3291   -23.810    -8.496    -7.942 -0.3810  0.9152  0.1311
 
              Baa    -0.1209     8.748     3.122     2.918  0.0934  0.4227  0.9015
    15 O(17)  Bbb    -0.1163     8.414     3.002     2.807 -0.4898  0.8078 -0.3280
              Bcc     0.2372   -17.163    -6.124    -5.725  0.8668  0.4109 -0.2824
 
              Baa    -0.0107    -1.439    -0.513    -0.480 -0.2761  0.0805  0.9578
    16 C(13)  Bbb    -0.0051    -0.687    -0.245    -0.229  0.6858 -0.6817  0.2550
              Bcc     0.0158     2.126     0.759     0.709  0.6734  0.7272  0.1330
 
              Baa    -0.0228    -3.065    -1.093    -1.022 -0.0168  0.2734  0.9618
    17 C(13)  Bbb    -0.0220    -2.958    -1.056    -0.987  0.0422  0.9612 -0.2725
              Bcc     0.0449     6.023     2.149     2.009  0.9990 -0.0360  0.0277
 
              Baa    -0.0037    -1.967    -0.702    -0.656 -0.1445  0.0361  0.9888
    18 H(1)   Bbb     0.0003     0.145     0.052     0.048  0.6566  0.7511  0.0685
              Bcc     0.0034     1.822     0.650     0.608  0.7403 -0.6592  0.1322
 
              Baa    -0.0032    -1.687    -0.602    -0.563  0.0383  0.9569  0.2878
    19 H(1)   Bbb     0.0012     0.640     0.228     0.213  0.0205 -0.2887  0.9572
              Bcc     0.0020     1.047     0.374     0.349  0.9991 -0.0308 -0.0307
 
              Baa    -0.0381    -5.112    -1.824    -1.705  0.3215 -0.2406  0.9158
    20 C(13)  Bbb    -0.0272    -3.650    -1.302    -1.218  0.9314 -0.0941 -0.3517
              Bcc     0.0653     8.762     3.126     2.923  0.1708  0.9660  0.1939
 
              Baa    -0.0061    -3.278    -1.170    -1.093  0.0484  0.9988 -0.0006
    21 H(1)   Bbb    -0.0032    -1.716    -0.612    -0.572 -0.5188  0.0257  0.8545
              Bcc     0.0094     4.993     1.782     1.666  0.8535 -0.0411  0.5194
 
              Baa    -0.0076    -4.059    -1.448    -1.354 -0.1222 -0.1693  0.9780
    22 H(1)   Bbb    -0.0024    -1.304    -0.465    -0.435  0.4300  0.8791  0.2059
              Bcc     0.0101     5.363     1.914     1.789  0.8945 -0.4456  0.0346
 
              Baa    -0.0089    -4.751    -1.695    -1.585 -0.1838  0.9363  0.2992
    23 H(1)   Bbb    -0.0057    -3.031    -1.082    -1.011  0.9122  0.0490  0.4069
              Bcc     0.0146     7.782     2.777     2.596 -0.3663 -0.3477  0.8631
 
              Baa    -0.0101    -5.368    -1.915    -1.791  0.2479 -0.1982  0.9483
    24 H(1)   Bbb    -0.0057    -3.058    -1.091    -1.020  0.9568 -0.1037 -0.2718
              Bcc     0.0158     8.426     3.007     2.811  0.1522  0.9747  0.1639
 
              Baa    -0.4996   -19.269    -6.876    -6.428  0.4566 -0.2177  0.8626
    25 N(14)  Bbb    -0.4958   -19.121    -6.823    -6.378  0.8886  0.1599 -0.4300
              Bcc     0.9954    38.390    13.699    12.806 -0.0443  0.9628  0.2664
 
              Baa    -0.0450   -24.033    -8.576    -8.017 -0.5723 -0.2616  0.7772
    26 H(1)   Bbb    -0.0171    -9.103    -3.248    -3.036  0.1980  0.8756  0.4405
              Bcc     0.0621    33.136    11.824    11.053  0.7958 -0.4060  0.4493
 
              Baa    -0.0440   -23.500    -8.385    -7.839  0.9950  0.0444  0.0894
    27 H(1)   Bbb    -0.0170    -9.084    -3.241    -3.030 -0.0401  0.9980 -0.0486
              Bcc     0.0611    32.584    11.627    10.869 -0.0913  0.0447  0.9948
 

 ---------------------------------------------------------------------------------


 Test job not archived.
 1\1\GINC-BATAGIN2\SP\UB3LYP\6-31G(d,p)\C4H13N1O7P2(1+,2)\ORISON\22-Jan
 -2021\0\\#t B3LYP/6-31G(d,p) # Gfinput IOP(6/7=3) Pop=hirshfeld Densit
 y Test # Units(Ang,Deg)\\alendronate-2-opt-g09.log\\1,2\C,0,0.12693,-0
 .17508,0.39297\O,0,-0.01706,-0.2741,1.79834\H,0,0.78612,0.06316,2.2210
 5\P,0,1.6333,-1.12374,-0.17389\P,0,0.37155,1.6145,-0.12026\O,0,2.77056
 ,-0.77761,0.91378\H,0,2.95167,0.18171,0.89493\O,0,1.37689,-2.67544,0.1
 5834\H,0,1.44816,-3.20863,-0.64725\O,0,0.69143,1.56244,-1.68555\H,0,1.
 23106,0.76535,-1.92703\O,0,1.82706,1.84341,0.65121\H,0,1.9417,2.78055,
 0.8726\O,0,-0.63144,2.62573,0.27432\O,0,1.95355,-0.83495,-1.61041\C,0,
 -1.13276,-0.78068,-0.2591\C,0,-2.4575,-0.1551,0.20152\H,0,-1.1323,-1.8
 4899,-0.01258\H,0,-1.03062,-0.69913,-1.34753\C,0,-3.66029,-0.89805,-0.
 3855\H,0,-2.50217,-0.19222,1.29587\H,0,-2.5133,0.89983,-0.07955\H,0,-3
 .62435,-0.84086,-1.48134\H,0,-3.58188,-1.97165,-0.12774\N,0,-4.90833,-
 0.26783,0.05135\H,0,-5.70387,-0.744,-0.36671\H,0,-5.01084,-0.37423,1.0
 5859\\Version=EM64L-G16RevA.03\State=2-A\HF=-1424.1149188\S2=0.753345\
 S2-1=0.\S2A=0.750009\RMSD=8.336e-09\Dipole=-3.1766803,-1.5138433,0.535
 3184\Quadrupole=29.2020237,-11.5713338,-17.6306899,15.7728681,2.744473
 2,6.7326626\PG=C01 [X(C4H13N1O7P2)]\\@


 ALMOST ALL THE CHEMICAL PROCESSES WHICH OCCUR IN NATURE,
 WHETHER IN ANIMAL OR VEGETABLE ORGANISMS,
 OR IN THE NON-LIVING SURFACE OF THE EARTH ... 
 TAKE PLACE BETWEEN SUBSTANCES IN SOLUTION

                                    -- W. OSTWALD, 1890
 Job cpu time:       0 days  0 hours 16 minutes 28.7 seconds.
 Elapsed time:       0 days  0 hours  2 minutes  3.7 seconds.
 File lengths (MBytes):  RWF=     80 Int=      0 D2E=      0 Chk=      7 Scr=      1
 Normal termination of Gaussian 16 at Fri Jan 22 01:54:31 2021.
