 Entering Gaussian System, Link 0=g16
 Input=alendronate-1-opt-g09.com
 Output=alendronate-1-opt-g09.log
 Initial command:
 /usr/local//g16/l1.exe "/home/orison/scrgauss/Gau-32461.inp" -scrdir="/home/orison/scrgauss/"
 Entering Link 1 = /usr/local//g16/l1.exe PID=     32463.
  
 Copyright (c) 1988,1990,1992,1993,1995,1998,2003,2009,2016,
            Gaussian, Inc.  All Rights Reserved.
  
 This is part of the Gaussian(R) 16 program.  It is based on
 the Gaussian(R) 09 system (copyright 2009, Gaussian, Inc.),
 the Gaussian(R) 03 system (copyright 2003, Gaussian, Inc.),
 the Gaussian(R) 98 system (copyright 1998, Gaussian, Inc.),
 the Gaussian(R) 94 system (copyright 1995, Gaussian, Inc.),
 the Gaussian 92(TM) system (copyright 1992, Gaussian, Inc.),
 the Gaussian 90(TM) system (copyright 1990, Gaussian, Inc.),
 the Gaussian 88(TM) system (copyright 1988, Gaussian, Inc.),
 the Gaussian 86(TM) system (copyright 1986, Carnegie Mellon
 University), and the Gaussian 82(TM) system (copyright 1983,
 Carnegie Mellon University). Gaussian is a federally registered
 trademark of Gaussian, Inc.
  
 This software contains proprietary and confidential information,
 including trade secrets, belonging to Gaussian, Inc.
  
 This software is provided under written license and may be
 used, copied, transmitted, or stored only in accord with that
 written license.
  
 The following legend is applicable only to US Government
 contracts under FAR:
  
                    RESTRICTED RIGHTS LEGEND
  
 Use, reproduction and disclosure by the US Government is
 subject to restrictions as set forth in subparagraphs (a)
 and (c) of the Commercial Computer Software - Restricted
 Rights clause in FAR 52.227-19.
  
 Gaussian, Inc.
 340 Quinnipiac St., Bldg. 40, Wallingford CT 06492
  
  
 ---------------------------------------------------------------
 Warning -- This program may not be used in any manner that
 competes with the business of Gaussian, Inc. or will provide
 assistance to any competitor of Gaussian, Inc.  The licensee
 of this program is prohibited from giving any competitor of
 Gaussian, Inc. access to this program.  By using this program,
 the user acknowledges that Gaussian, Inc. is engaged in the
 business of creating and licensing software in the field of
 computational chemistry and represents and warrants to the
 licensee that it is not a competitor of Gaussian, Inc. and that
 it will not use this program in any manner prohibited above.
 ---------------------------------------------------------------
  

 Cite this work as:
 Gaussian 16, Revision A.03,
 M. J. Frisch, G. W. Trucks, H. B. Schlegel, G. E. Scuseria, 
 M. A. Robb, J. R. Cheeseman, G. Scalmani, V. Barone, 
 G. A. Petersson, H. Nakatsuji, X. Li, M. Caricato, A. V. Marenich, 
 J. Bloino, B. G. Janesko, R. Gomperts, B. Mennucci, H. P. Hratchian, 
 J. V. Ortiz, A. F. Izmaylov, J. L. Sonnenberg, D. Williams-Young, 
 F. Ding, F. Lipparini, F. Egidi, J. Goings, B. Peng, A. Petrone, 
 T. Henderson, D. Ranasinghe, V. G. Zakrzewski, J. Gao, N. Rega, 
 G. Zheng, W. Liang, M. Hada, M. Ehara, K. Toyota, R. Fukuda, 
 J. Hasegawa, M. Ishida, T. Nakajima, Y. Honda, O. Kitao, H. Nakai, 
 T. Vreven, K. Throssell, J. A. Montgomery, Jr., J. E. Peralta, 
 F. Ogliaro, M. J. Bearpark, J. J. Heyd, E. N. Brothers, K. N. Kudin, 
 V. N. Staroverov, T. A. Keith, R. Kobayashi, J. Normand, 
 K. Raghavachari, A. P. Rendell, J. C. Burant, S. S. Iyengar, 
 J. Tomasi, M. Cossi, J. M. Millam, M. Klene, C. Adamo, R. Cammi, 
 J. W. Ochterski, R. L. Martin, K. Morokuma, O. Farkas, 
 J. B. Foresman, and D. J. Fox, Gaussian, Inc., Wallingford CT, 2016.
 
 ******************************************
 Gaussian 16:  EM64L-G16RevA.03 25-Dec-2016
                21-Jan-2021 
 ******************************************
 %nproc=8
 Will use up to    8 processors via shared memory.
 %Mem=4GB
 ----------------------------------------------------------------------
 #P B3LYP/6-31G(d,p) # Opt # Gfinput IOP(6/7=3) Pop=full Density Test #
  Units(Ang,Deg)
 ----------------------------------------------------------------------
 1/18=20,19=15,26=3,38=1/1,3;
 2/9=110,12=2,17=6,18=5,40=1/2;
 3/5=1,6=6,7=101,11=2,24=10,25=1,30=1,71=1,74=-5/1,2,3;
 4//1;
 5/5=2,38=5/2;
 6/7=3,22=-1,28=1/1;
 7//1,2,3,16;
 1/18=20,19=15,26=3/3(2);
 2/9=110/2;
 99//99;
 2/9=110/2;
 3/5=1,6=6,7=101,11=2,25=1,30=1,71=1,74=-5/1,2,3;
 4/5=5,16=3,69=1/1;
 5/5=2,38=5/2;
 7//1,2,3,16;
 1/18=20,19=15,26=3/3(-5);
 2/9=110/2;
 6/7=3,19=2,22=-1,28=1/1;
 99/9=1/99;
 Leave Link    1 at Thu Jan 21 18:14:01 2021, MaxMem=   536870912 cpu:               0.4 elap:               0.1
 (Enter /usr/local//g16/l101.exe)
 -----------------------
 alendronate-opt-g09.log
 -----------------------
 Symbolic Z-matrix:
 Charge =  0 Multiplicity = 1
 C                     0.15457   0.15351  -0.34884 
 O                    -0.02441   0.22105  -1.7509 
 H                     0.68015  -0.28967  -2.17675 
 P                     1.63772   1.16261   0.15044 
 P                     0.41011  -1.65691   0.22242 
 O                     2.60839   0.91695  -1.11434 
 H                     3.51916   1.20176  -0.94612 
 O                     1.27557   2.7365    0.02046 
 H                     1.16041   3.12681   0.89997 
 O                     1.90168  -1.7641    0.79507 
 H                     2.13351  -0.99155   1.3649 
 O                     0.63125  -2.4369   -1.18768 
 H                    -0.16463  -2.94204  -1.41057 
 O                    -0.69423  -2.17056   1.05285 
 O                     2.18604   0.81734   1.50286 
 C                    -1.10142   0.76406   0.31331 
 C                    -2.43451   0.18867  -0.18539 
 H                    -1.08582   1.84008   0.10466 
 H                    -1.01936   0.63598   1.39873 
 C                    -3.62899   0.91409   0.44011 
 H                    -2.47717   0.29215  -1.27569 
 H                    -2.50444  -0.87402   0.05491 
 H                    -3.62257   0.75196   1.52534 
 H                    -3.51562   2.00426   0.28589 
 N                    -4.88374   0.36687  -0.0844 
 H                    -5.67513   0.80376   0.38179 
 H                    -4.97189   0.60263  -1.07096 
 
 ITRead=  0  0  0  0  0  0  0  0  0  0  0  0  0  0  0  0  0  0  0  0
 ITRead=  0  0  0  0  0  0  0
 MicOpt= -1 -1 -1 -1 -1 -1 -1 -1 -1 -1 -1 -1 -1 -1 -1 -1 -1 -1 -1 -1
 MicOpt= -1 -1 -1 -1 -1 -1 -1
 NAtoms=     27 NQM=       27 NQMF=       0 NMMI=      0 NMMIF=      0
                NMic=       0 NMicF=      0.
                    Isotopes and Nuclear Properties:
 (Nuclear quadrupole moments (NQMom) in fm**2, nuclear magnetic moments (NMagM)
  in nuclear magnetons)

  Atom         1           2           3           4           5           6           7           8           9          10
 IAtWgt=          12          16           1          31          31          16           1          16           1          16
 AtmWgt=  12.0000000  15.9949146   1.0078250  30.9737634  30.9737634  15.9949146   1.0078250  15.9949146   1.0078250  15.9949146
 NucSpn=           0           0           1           1           1           0           1           0           1           0
 AtZEff=  -0.0000000  -0.0000000  -0.0000000  -0.0000000  -0.0000000  -0.0000000  -0.0000000  -0.0000000  -0.0000000  -0.0000000
 NQMom=    0.0000000   0.0000000   0.0000000   0.0000000   0.0000000   0.0000000   0.0000000   0.0000000   0.0000000   0.0000000
 NMagM=    0.0000000   0.0000000   2.7928460   1.1316000   1.1316000   0.0000000   2.7928460   0.0000000   2.7928460   0.0000000
 AtZNuc=   6.0000000   8.0000000   1.0000000  15.0000000  15.0000000   8.0000000   1.0000000   8.0000000   1.0000000   8.0000000

  Atom        11          12          13          14          15          16          17          18          19          20
 IAtWgt=           1          16           1          16          16          12          12           1           1          12
 AtmWgt=   1.0078250  15.9949146   1.0078250  15.9949146  15.9949146  12.0000000  12.0000000   1.0078250   1.0078250  12.0000000
 NucSpn=           1           0           1           0           0           0           0           1           1           0
 AtZEff=  -0.0000000  -0.0000000  -0.0000000  -0.0000000  -0.0000000  -0.0000000  -0.0000000  -0.0000000  -0.0000000  -0.0000000
 NQMom=    0.0000000   0.0000000   0.0000000   0.0000000   0.0000000   0.0000000   0.0000000   0.0000000   0.0000000   0.0000000
 NMagM=    2.7928460   0.0000000   2.7928460   0.0000000   0.0000000   0.0000000   0.0000000   2.7928460   2.7928460   0.0000000
 AtZNuc=   1.0000000   8.0000000   1.0000000   8.0000000   8.0000000   6.0000000   6.0000000   1.0000000   1.0000000   6.0000000

  Atom        21          22          23          24          25          26          27
 IAtWgt=           1           1           1           1          14           1           1
 AtmWgt=   1.0078250   1.0078250   1.0078250   1.0078250  14.0030740   1.0078250   1.0078250
 NucSpn=           1           1           1           1           2           1           1
 AtZEff=  -0.0000000  -0.0000000  -0.0000000  -0.0000000  -0.0000000  -0.0000000  -0.0000000
 NQMom=    0.0000000   0.0000000   0.0000000   0.0000000   2.0440000   0.0000000   0.0000000
 NMagM=    2.7928460   2.7928460   2.7928460   2.7928460   0.4037610   2.7928460   2.7928460
 AtZNuc=   1.0000000   1.0000000   1.0000000   1.0000000   7.0000000   1.0000000   1.0000000
 Leave Link  101 at Thu Jan 21 18:14:02 2021, MaxMem=   536870912 cpu:               1.7 elap:               0.5
 (Enter /usr/local//g16/l103.exe)

 GradGradGradGradGradGradGradGradGradGradGradGradGradGradGradGradGradGrad
 Berny optimization.
 Initialization pass.
                           ----------------------------
                           !    Initial Parameters    !
                           ! (Angstroms and Degrees)  !
 --------------------------                            --------------------------
 ! Name  Definition              Value          Derivative Info.                !
 --------------------------------------------------------------------------------
 ! R1    R(1,2)                  1.4151         estimate D2E/DX2                !
 ! R2    R(1,4)                  1.8621         estimate D2E/DX2                !
 ! R3    R(1,5)                  1.9155         estimate D2E/DX2                !
 ! R4    R(1,16)                 1.5456         estimate D2E/DX2                !
 ! R5    R(2,3)                  0.9688         estimate D2E/DX2                !
 ! R6    R(4,6)                  1.6131         estimate D2E/DX2                !
 ! R7    R(4,8)                  1.6202         estimate D2E/DX2                !
 ! R8    R(4,15)                 1.4996         estimate D2E/DX2                !
 ! R9    R(5,10)                 1.6013         estimate D2E/DX2                !
 ! R10   R(5,12)                 1.6266         estimate D2E/DX2                !
 ! R11   R(5,14)                 1.4741         estimate D2E/DX2                !
 ! R12   R(6,7)                  0.969          estimate D2E/DX2                !
 ! R13   R(8,9)                  0.9691         estimate D2E/DX2                !
 ! R14   R(10,11)                0.9876         estimate D2E/DX2                !
 ! R15   R(12,13)                0.9686         estimate D2E/DX2                !
 ! R16   R(16,17)                1.5352         estimate D2E/DX2                !
 ! R17   R(16,18)                1.0962         estimate D2E/DX2                !
 ! R18   R(16,19)                1.096          estimate D2E/DX2                !
 ! R19   R(17,20)                1.5311         estimate D2E/DX2                !
 ! R20   R(17,21)                1.096          estimate D2E/DX2                !
 ! R21   R(17,22)                1.0918         estimate D2E/DX2                !
 ! R22   R(20,23)                1.0973         estimate D2E/DX2                !
 ! R23   R(20,24)                1.1068         estimate D2E/DX2                !
 ! R24   R(20,25)                1.4659         estimate D2E/DX2                !
 ! R25   R(25,26)                1.0171         estimate D2E/DX2                !
 ! R26   R(25,27)                1.0182         estimate D2E/DX2                !
 ! A1    A(2,1,4)              109.9103         estimate D2E/DX2                !
 ! A2    A(2,1,5)              110.945          estimate D2E/DX2                !
 ! A3    A(2,1,16)             107.6288         estimate D2E/DX2                !
 ! A4    A(4,1,5)              109.0241         estimate D2E/DX2                !
 ! A5    A(4,1,16)             108.5617         estimate D2E/DX2                !
 ! A6    A(5,1,16)             110.7324         estimate D2E/DX2                !
 ! A7    A(1,2,3)              108.565          estimate D2E/DX2                !
 ! A8    A(1,4,6)              100.75           estimate D2E/DX2                !
 ! A9    A(1,4,8)              109.0795         estimate D2E/DX2                !
 ! A10   A(1,4,15)             114.0963         estimate D2E/DX2                !
 ! A11   A(6,4,8)              102.6813         estimate D2E/DX2                !
 ! A12   A(6,4,15)             116.8725         estimate D2E/DX2                !
 ! A13   A(8,4,15)             112.1927         estimate D2E/DX2                !
 ! A14   A(1,5,10)             107.1082         estimate D2E/DX2                !
 ! A15   A(1,5,12)             102.2877         estimate D2E/DX2                !
 ! A16   A(1,5,14)             113.415          estimate D2E/DX2                !
 ! A17   A(10,5,12)             98.7014         estimate D2E/DX2                !
 ! A18   A(10,5,14)            118.2312         estimate D2E/DX2                !
 ! A19   A(12,5,14)            115.0327         estimate D2E/DX2                !
 ! A20   A(4,6,7)              112.6254         estimate D2E/DX2                !
 ! A21   A(4,8,9)              110.1812         estimate D2E/DX2                !
 ! A22   A(5,10,11)            111.8786         estimate D2E/DX2                !
 ! A23   A(5,12,13)            109.746          estimate D2E/DX2                !
 ! A24   A(1,16,17)            114.7354         estimate D2E/DX2                !
 ! A25   A(1,16,18)            107.1372         estimate D2E/DX2                !
 ! A26   A(1,16,19)            108.4979         estimate D2E/DX2                !
 ! A27   A(17,16,18)           108.5679         estimate D2E/DX2                !
 ! A28   A(17,16,19)           110.0543         estimate D2E/DX2                !
 ! A29   A(18,16,19)           107.5866         estimate D2E/DX2                !
 ! A30   A(16,17,20)           111.5399         estimate D2E/DX2                !
 ! A31   A(16,17,21)           108.7569         estimate D2E/DX2                !
 ! A32   A(16,17,22)           110.4221         estimate D2E/DX2                !
 ! A33   A(20,17,21)           109.3475         estimate D2E/DX2                !
 ! A34   A(20,17,22)           108.7407         estimate D2E/DX2                !
 ! A35   A(21,17,22)           107.9603         estimate D2E/DX2                !
 ! A36   A(17,20,23)           109.2366         estimate D2E/DX2                !
 ! A37   A(17,20,24)           109.258          estimate D2E/DX2                !
 ! A38   A(17,20,25)           110.1649         estimate D2E/DX2                !
 ! A39   A(23,20,24)           106.4232         estimate D2E/DX2                !
 ! A40   A(23,20,25)           107.6811         estimate D2E/DX2                !
 ! A41   A(24,20,25)           113.9215         estimate D2E/DX2                !
 ! A42   A(20,25,26)           109.9773         estimate D2E/DX2                !
 ! A43   A(20,25,27)           109.5337         estimate D2E/DX2                !
 ! A44   A(26,25,27)           106.0989         estimate D2E/DX2                !
 ! D1    D(4,1,2,3)             71.4103         estimate D2E/DX2                !
 ! D2    D(5,1,2,3)            -49.2438         estimate D2E/DX2                !
 ! D3    D(16,1,2,3)          -170.5331         estimate D2E/DX2                !
 ! D4    D(2,1,4,6)            -34.9651         estimate D2E/DX2                !
 ! D5    D(2,1,4,8)             72.619          estimate D2E/DX2                !
 ! D6    D(2,1,4,15)          -161.0448         estimate D2E/DX2                !
 ! D7    D(5,1,4,6)             86.8411         estimate D2E/DX2                !
 ! D8    D(5,1,4,8)           -165.5748         estimate D2E/DX2                !
 ! D9    D(5,1,4,15)           -39.2385         estimate D2E/DX2                !
 ! D10   D(16,1,4,6)          -152.4427         estimate D2E/DX2                !
 ! D11   D(16,1,4,8)           -44.8586         estimate D2E/DX2                !
 ! D12   D(16,1,4,15)           81.4776         estimate D2E/DX2                !
 ! D13   D(2,1,5,10)           114.5018         estimate D2E/DX2                !
 ! D14   D(2,1,5,12)            11.2611         estimate D2E/DX2                !
 ! D15   D(2,1,5,14)          -113.2273         estimate D2E/DX2                !
 ! D16   D(4,1,5,10)            -6.6754         estimate D2E/DX2                !
 ! D17   D(4,1,5,12)          -109.9161         estimate D2E/DX2                !
 ! D18   D(4,1,5,14)           125.5955         estimate D2E/DX2                !
 ! D19   D(16,1,5,10)         -126.0517         estimate D2E/DX2                !
 ! D20   D(16,1,5,12)          130.7076         estimate D2E/DX2                !
 ! D21   D(16,1,5,14)            6.2192         estimate D2E/DX2                !
 ! D22   D(2,1,16,17)           51.3585         estimate D2E/DX2                !
 ! D23   D(2,1,16,18)          -69.2349         estimate D2E/DX2                !
 ! D24   D(2,1,16,19)          174.8798         estimate D2E/DX2                !
 ! D25   D(4,1,16,17)          170.2821         estimate D2E/DX2                !
 ! D26   D(4,1,16,18)           49.6888         estimate D2E/DX2                !
 ! D27   D(4,1,16,19)          -66.1965         estimate D2E/DX2                !
 ! D28   D(5,1,16,17)          -70.0637         estimate D2E/DX2                !
 ! D29   D(5,1,16,18)          169.343          estimate D2E/DX2                !
 ! D30   D(5,1,16,19)           53.4577         estimate D2E/DX2                !
 ! D31   D(1,4,6,7)           -166.761          estimate D2E/DX2                !
 ! D32   D(8,4,6,7)             80.6724         estimate D2E/DX2                !
 ! D33   D(15,4,6,7)           -42.5615         estimate D2E/DX2                !
 ! D34   D(1,4,8,9)            106.6519         estimate D2E/DX2                !
 ! D35   D(6,4,8,9)           -147.0802         estimate D2E/DX2                !
 ! D36   D(15,4,8,9)           -20.769          estimate D2E/DX2                !
 ! D37   D(1,5,10,11)           43.2898         estimate D2E/DX2                !
 ! D38   D(12,5,10,11)         149.0954         estimate D2E/DX2                !
 ! D39   D(14,5,10,11)         -86.2919         estimate D2E/DX2                !
 ! D40   D(1,5,12,13)         -105.3047         estimate D2E/DX2                !
 ! D41   D(10,5,12,13)         144.9454         estimate D2E/DX2                !
 ! D42   D(14,5,12,13)          18.1026         estimate D2E/DX2                !
 ! D43   D(1,16,17,20)        -175.7967         estimate D2E/DX2                !
 ! D44   D(1,16,17,21)         -55.1203         estimate D2E/DX2                !
 ! D45   D(1,16,17,22)          63.1697         estimate D2E/DX2                !
 ! D46   D(18,16,17,20)        -55.9952         estimate D2E/DX2                !
 ! D47   D(18,16,17,21)         64.6812         estimate D2E/DX2                !
 ! D48   D(18,16,17,22)       -177.0288         estimate D2E/DX2                !
 ! D49   D(19,16,17,20)         61.5168         estimate D2E/DX2                !
 ! D50   D(19,16,17,21)       -177.8068         estimate D2E/DX2                !
 ! D51   D(19,16,17,22)        -59.5168         estimate D2E/DX2                !
 ! D52   D(16,17,20,23)        -63.4947         estimate D2E/DX2                !
 ! D53   D(16,17,20,24)         52.5527         estimate D2E/DX2                !
 ! D54   D(16,17,20,25)        178.417          estimate D2E/DX2                !
 ! D55   D(21,17,20,23)        176.1751         estimate D2E/DX2                !
 ! D56   D(21,17,20,24)        -67.7775         estimate D2E/DX2                !
 ! D57   D(21,17,20,25)         58.0869         estimate D2E/DX2                !
 ! D58   D(22,17,20,23)         58.5142         estimate D2E/DX2                !
 ! D59   D(22,17,20,24)        174.5615         estimate D2E/DX2                !
 ! D60   D(22,17,20,25)        -59.5741         estimate D2E/DX2                !
 ! D61   D(17,20,25,26)        175.9375         estimate D2E/DX2                !
 ! D62   D(17,20,25,27)        -67.8284         estimate D2E/DX2                !
 ! D63   D(23,20,25,26)         56.8955         estimate D2E/DX2                !
 ! D64   D(23,20,25,27)        173.1296         estimate D2E/DX2                !
 ! D65   D(24,20,25,26)        -60.882          estimate D2E/DX2                !
 ! D66   D(24,20,25,27)         55.3521         estimate D2E/DX2                !
 --------------------------------------------------------------------------------
 Trust Radius=3.00D-01 FncErr=1.00D-07 GrdErr=1.00D-06 EigMax=2.50D+02 EigMin=1.00D-04
 Number of steps in this run=    146 maximum allowed number of steps=    162.
 GradGradGradGradGradGradGradGradGradGradGradGradGradGradGradGradGradGrad

 Leave Link  103 at Thu Jan 21 18:14:02 2021, MaxMem=   536870912 cpu:               0.4 elap:               0.1
 (Enter /usr/local//g16/l202.exe)
                          Input orientation:                          
 ---------------------------------------------------------------------
 Center     Atomic      Atomic             Coordinates (Angstroms)
 Number     Number       Type             X           Y           Z
 ---------------------------------------------------------------------
      1          6           0        0.154570    0.153510   -0.348840
      2          8           0       -0.024410    0.221050   -1.750900
      3          1           0        0.680150   -0.289670   -2.176750
      4         15           0        1.637720    1.162610    0.150440
      5         15           0        0.410110   -1.656910    0.222420
      6          8           0        2.608390    0.916950   -1.114340
      7          1           0        3.519160    1.201760   -0.946120
      8          8           0        1.275570    2.736500    0.020460
      9          1           0        1.160410    3.126810    0.899970
     10          8           0        1.901680   -1.764100    0.795070
     11          1           0        2.133510   -0.991550    1.364900
     12          8           0        0.631250   -2.436900   -1.187680
     13          1           0       -0.164630   -2.942040   -1.410570
     14          8           0       -0.694230   -2.170560    1.052850
     15          8           0        2.186040    0.817340    1.502860
     16          6           0       -1.101420    0.764060    0.313310
     17          6           0       -2.434510    0.188670   -0.185390
     18          1           0       -1.085820    1.840080    0.104660
     19          1           0       -1.019360    0.635980    1.398730
     20          6           0       -3.628990    0.914090    0.440110
     21          1           0       -2.477170    0.292150   -1.275690
     22          1           0       -2.504440   -0.874020    0.054910
     23          1           0       -3.622570    0.751960    1.525340
     24          1           0       -3.515620    2.004260    0.285890
     25          7           0       -4.883740    0.366870   -0.084400
     26          1           0       -5.675130    0.803760    0.381790
     27          1           0       -4.971890    0.602630   -1.070960
 ---------------------------------------------------------------------
                    Distance matrix (angstroms):
                    1          2          3          4          5
     1  C    0.000000
     2  O    1.415050   0.000000
     3  H    1.952920   0.968807   0.000000
     4  P    1.862068   2.695237   2.905490   0.000000
     5  P    1.915531   2.758538   2.774578   3.076020   0.000000
     6  O    2.681429   2.796627   2.510529   1.613139   3.639247
     7  H    3.574358   3.763821   3.434937   2.178025   4.382199
     8  O    2.839870   3.339933   3.786814   1.620240   4.482394
     9  H    3.378129   4.107840   4.622682   2.155853   4.889376
    10  O    2.835163   3.759336   3.535222   3.008464   1.601312
    11  H    2.857319   3.979350   3.892066   2.522127   2.172112
    12  O    2.764254   2.794961   2.364582   3.969889   1.626551
    13  H    3.288098   3.184435   2.887170   4.746933   2.156048
    14  O    2.843677   3.745594   3.982083   4.166816   1.474116
    15  O    2.827779   3.978518   4.127070   1.499635   3.303841
    16  C    1.545550   2.390768   3.238014   2.772771   2.855535
    17  C    2.594472   2.874100   3.727658   4.200524   3.415309
    18  H    2.142136   2.681595   3.585989   2.806908   3.805340
    19  H    2.159836   3.329003   4.065614   2.982556   2.946936
    20  C    3.939067   4.274790   5.183212   5.280521   4.792886
    21  H    2.793623   2.499382   3.334530   4.441156   3.792038
    22  H    2.879091   3.257403   3.932351   4.616760   3.022512
    23  H    4.258812   4.895137   5.770950   5.452489   4.874706
    24  H    4.159141   4.417793   5.378773   5.223374   5.368384
    25  N    5.049754   5.139219   5.980455   6.574024   5.675797
    26  H    5.911180   6.067829   6.937673   7.325303   6.565854
    27  H    5.196514   5.008541   5.827909   6.744801   5.978652
                    6          7          8          9         10
     6  O    0.000000
     7  H    0.968977   0.000000
     8  O    2.524865   2.885030   0.000000
     9  H    3.322284   3.560557   0.969093   0.000000
    10  O    3.366499   3.800567   4.609494   4.947877   0.000000
    11  H    3.164572   3.474399   4.054866   4.257226   0.987565
    12  O    3.893940   4.651690   5.351525   5.966000   2.449071
    13  H    4.761218   5.563911   6.030575   6.627614   3.243767
    14  O    5.013654   5.755092   5.387502   5.614730   2.640153
    15  O    2.652930   2.814692   2.590297   2.597892   2.691776
    16  C    3.977971   4.809106   3.102638   3.323046   3.955034
    17  C    5.179207   6.086974   4.505386   4.768031   4.855631
    18  H    3.998164   4.766281   2.527216   2.708088   4.732012
    19  H    4.422108   5.139707   3.402722   3.347296   3.828481
    20  C    6.428159   7.287005   5.248999   5.295843   6.155242
    21  H    5.126337   6.073877   4.662393   5.099096   5.262180
    22  H    5.542179   6.449394   5.227381   5.491074   4.555653
    23  H    6.769047   7.570650   5.494983   5.376607   6.114016
    24  H    6.375452   7.186792   4.854084   4.847935   6.618681
    25  N    7.582571   8.488129   6.600246   6.716994   7.166340
    26  H    8.418309   9.298210   7.223453   7.238071   8.010790
    27  H    7.586918   8.513077   6.691439   6.918176   7.505294
                   11         12         13         14         15
    11  H    0.000000
    12  O    3.295677   0.000000
    13  H    4.097450   0.968644   0.000000
    14  O    3.079538   2.616832   2.635165   0.000000
    15  O    1.814904   4.499606   5.305343   4.174447   0.000000
    16  C    3.827895   3.937164   4.193389   3.053640   3.496464
    17  C    4.966198   4.158977   4.056448   3.182417   4.959324
    18  H    4.468827   4.786547   5.100312   4.139763   3.702165
    19  H    3.548322   4.342421   4.628710   2.846403   3.212215
    20  C    6.139471   5.659371   5.504230   4.301550   5.912138
    21  H    5.466166   4.137358   3.978193   3.829610   5.453594
    22  H    4.820837   3.717415   3.449500   2.440033   5.192096
    23  H    6.016479   5.968609   5.850004   4.164078   5.809021
    24  H    6.484737   6.252347   6.210716   5.096822   5.949682
    25  N    7.292981   6.284383   5.914187   5.028308   7.259759
    26  H    8.072453   7.261924   6.899941   5.840057   7.940716
    27  H    7.678641   6.375543   5.982455   5.522638   7.609639
                   16         17         18         19         20
    16  C    0.000000
    17  C    1.535221   0.000000
    18  H    1.096174   2.151801   0.000000
    19  H    1.096027   2.170754   1.768867   0.000000
    20  C    2.535192   1.531100   2.727214   2.794005   0.000000
    21  H    2.154137   1.096030   2.497460   3.065282   2.158117
    22  H    2.172220   1.091762   3.062890   2.508269   2.147168
    23  H    2.797385   2.157633   3.104422   2.608866   1.097293
    24  H    2.714260   2.165011   2.442074   3.056455   1.106846
    25  N    3.823856   2.457780   4.078025   4.147955   1.465932
    26  H    4.574395   3.346886   4.713017   4.768492   2.049942
    27  H    4.113733   2.719172   4.244397   4.660791   2.045414
                   21         22         23         24         25
    21  H    0.000000
    22  H    1.769518   0.000000
    23  H    3.060904   2.460933   0.000000
    24  H    2.539337   3.059466   1.765200   0.000000
    25  N    2.686324   2.687059   2.080891   2.165621   0.000000
    26  H    3.638122   3.602093   2.350190   2.472626   1.017106
    27  H    2.522289   3.088104   2.929802   2.434406   1.018162
                   26         27
    26  H    0.000000
    27  H    1.626494   0.000000
 Stoichiometry    C4H13NO7P2
 Framework group  C1[X(C4H13NO7P2)]
 Deg. of freedom    75
 Full point group                 C1      NOp   1
 Largest Abelian subgroup         C1      NOp   1
 Largest concise Abelian subgroup C1      NOp   1
                         Standard orientation:                         
 ---------------------------------------------------------------------
 Center     Atomic      Atomic             Coordinates (Angstroms)
 Number     Number       Type             X           Y           Z
 ---------------------------------------------------------------------
      1          6           0        0.154569   -0.153510    0.348839
      2          8           0       -0.024410   -0.221051    1.750899
      3          1           0        0.680149    0.289670    2.176749
      4         15           0        1.637720   -1.162609   -0.150441
      5         15           0        0.410108    1.656910   -0.222421
      6          8           0        2.608390   -0.916948    1.114339
      7          1           0        3.519160   -1.201757    0.946119
      8          8           0        1.275572   -2.736499   -0.020461
      9          1           0        1.160412   -3.126810   -0.899971
     10          8           0        1.901678    1.764101   -0.795071
     11          1           0        2.133508    0.991551   -1.364901
     12          8           0        0.631247    2.436900    1.187679
     13          1           0       -0.164633    2.942039    1.410569
     14          8           0       -0.694233    2.170559   -1.052851
     15          8           0        2.186040   -0.817339   -1.502861
     16          6           0       -1.101420   -0.764062   -0.313311
     17          6           0       -2.434511   -0.188673    0.185389
     18          1           0       -1.085819   -1.840082   -0.104661
     19          1           0       -1.019360   -0.635982   -1.398731
     20          6           0       -3.628990   -0.914094   -0.440111
     21          1           0       -2.477170   -0.292153    1.275689
     22          1           0       -2.504442    0.874017   -0.054911
     23          1           0       -3.622570   -0.751964   -1.525341
     24          1           0       -3.515619   -2.004264   -0.285891
     25          7           0       -4.883740   -0.366875    0.084399
     26          1           0       -5.675130   -0.803766   -0.381791
     27          1           0       -4.971890   -0.602635    1.070959
 ---------------------------------------------------------------------
 Rotational constants (GHZ):           0.6989396           0.4056652           0.3143990
 Leave Link  202 at Thu Jan 21 18:14:02 2021, MaxMem=   536870912 cpu:               0.6 elap:               0.2
 (Enter /usr/local//g16/l301.exe)
 Standard basis: 6-31G(d,p) (6D, 7F)
 Ernie: Thresh=  0.10000D-02 Tol=  0.10000D-05 Strict=F.
 AO basis set in the form of general basis input (Overlap normalization):
      1 0
 S   6 1.00       0.000000000000
      0.3047524880D+04  0.1834737132D-02
      0.4573695180D+03  0.1403732281D-01
      0.1039486850D+03  0.6884262226D-01
      0.2921015530D+02  0.2321844432D+00
      0.9286662960D+01  0.4679413484D+00
      0.3163926960D+01  0.3623119853D+00
 SP   3 1.00       0.000000000000
      0.7868272350D+01 -0.1193324198D+00  0.6899906659D-01
      0.1881288540D+01 -0.1608541517D+00  0.3164239610D+00
      0.5442492580D+00  0.1143456438D+01  0.7443082909D+00
 SP   1 1.00       0.000000000000
      0.1687144782D+00  0.1000000000D+01  0.1000000000D+01
 D   1 1.00       0.000000000000
      0.8000000000D+00  0.1000000000D+01
 ****
      2 0
 S   6 1.00       0.000000000000
      0.5484671660D+04  0.1831074430D-02
      0.8252349460D+03  0.1395017220D-01
      0.1880469580D+03  0.6844507810D-01
      0.5296450000D+02  0.2327143360D+00
      0.1689757040D+02  0.4701928980D+00
      0.5799635340D+01  0.3585208530D+00
 SP   3 1.00       0.000000000000
      0.1553961625D+02 -0.1107775495D+00  0.7087426823D-01
      0.3599933586D+01 -0.1480262627D+00  0.3397528391D+00
      0.1013761750D+01  0.1130767015D+01  0.7271585773D+00
 SP   1 1.00       0.000000000000
      0.2700058226D+00  0.1000000000D+01  0.1000000000D+01
 D   1 1.00       0.000000000000
      0.8000000000D+00  0.1000000000D+01
 ****
      3 0
 S   3 1.00       0.000000000000
      0.1873113696D+02  0.3349460434D-01
      0.2825394365D+01  0.2347269535D+00
      0.6401216923D+00  0.8137573261D+00
 S   1 1.00       0.000000000000
      0.1612777588D+00  0.1000000000D+01
 P   1 1.00       0.000000000000
      0.1100000000D+01  0.1000000000D+01
 ****
      4 0
 S   6 1.00       0.000000000000
      0.1941330000D+05  0.1851598923D-02
      0.2909420000D+04  0.1420619174D-01
      0.6613640000D+03  0.6999945928D-01
      0.1857590000D+03  0.2400788603D+00
      0.5919430000D+02  0.4847617180D+00
      0.2003100000D+02  0.3351998050D+00
 SP   6 1.00       0.000000000000
      0.3394780000D+03 -0.2782170105D-02  0.4564616191D-02
      0.8101010000D+02 -0.3604990135D-01  0.3369357188D-01
      0.2587800000D+02 -0.1166310044D+00  0.1397548834D+00
      0.9452210000D+01  0.9683280364D-01  0.3393617168D+00
      0.3665660000D+01  0.6144180231D+00  0.4509206237D+00
      0.1467460000D+01  0.4037980152D+00  0.2385858009D+00
 SP   3 1.00       0.000000000000
      0.2156230000D+01 -0.2529241139D+00 -0.1776531273D-01
      0.7489970000D+00  0.3285184468D-01  0.2740581964D+00
      0.2831450000D+00  0.1081254762D+01  0.7854215630D+00
 SP   1 1.00       0.000000000000
      0.9983170000D-01  0.1000000000D+01  0.1000000000D+01
 D   1 1.00       0.000000000000
      0.5500000000D+00  0.1000000000D+01
 ****
      5 0
 S   6 1.00       0.000000000000
      0.1941330000D+05  0.1851598923D-02
      0.2909420000D+04  0.1420619174D-01
      0.6613640000D+03  0.6999945928D-01
      0.1857590000D+03  0.2400788603D+00
      0.5919430000D+02  0.4847617180D+00
      0.2003100000D+02  0.3351998050D+00
 SP   6 1.00       0.000000000000
      0.3394780000D+03 -0.2782170105D-02  0.4564616191D-02
      0.8101010000D+02 -0.3604990135D-01  0.3369357188D-01
      0.2587800000D+02 -0.1166310044D+00  0.1397548834D+00
      0.9452210000D+01  0.9683280364D-01  0.3393617168D+00
      0.3665660000D+01  0.6144180231D+00  0.4509206237D+00
      0.1467460000D+01  0.4037980152D+00  0.2385858009D+00
 SP   3 1.00       0.000000000000
      0.2156230000D+01 -0.2529241139D+00 -0.1776531273D-01
      0.7489970000D+00  0.3285184468D-01  0.2740581964D+00
      0.2831450000D+00  0.1081254762D+01  0.7854215630D+00
 SP   1 1.00       0.000000000000
      0.9983170000D-01  0.1000000000D+01  0.1000000000D+01
 D   1 1.00       0.000000000000
      0.5500000000D+00  0.1000000000D+01
 ****
      6 0
 S   6 1.00       0.000000000000
      0.5484671660D+04  0.1831074430D-02
      0.8252349460D+03  0.1395017220D-01
      0.1880469580D+03  0.6844507810D-01
      0.5296450000D+02  0.2327143360D+00
      0.1689757040D+02  0.4701928980D+00
      0.5799635340D+01  0.3585208530D+00
 SP   3 1.00       0.000000000000
      0.1553961625D+02 -0.1107775495D+00  0.7087426823D-01
      0.3599933586D+01 -0.1480262627D+00  0.3397528391D+00
      0.1013761750D+01  0.1130767015D+01  0.7271585773D+00
 SP   1 1.00       0.000000000000
      0.2700058226D+00  0.1000000000D+01  0.1000000000D+01
 D   1 1.00       0.000000000000
      0.8000000000D+00  0.1000000000D+01
 ****
      7 0
 S   3 1.00       0.000000000000
      0.1873113696D+02  0.3349460434D-01
      0.2825394365D+01  0.2347269535D+00
      0.6401216923D+00  0.8137573261D+00
 S   1 1.00       0.000000000000
      0.1612777588D+00  0.1000000000D+01
 P   1 1.00       0.000000000000
      0.1100000000D+01  0.1000000000D+01
 ****
      8 0
 S   6 1.00       0.000000000000
      0.5484671660D+04  0.1831074430D-02
      0.8252349460D+03  0.1395017220D-01
      0.1880469580D+03  0.6844507810D-01
      0.5296450000D+02  0.2327143360D+00
      0.1689757040D+02  0.4701928980D+00
      0.5799635340D+01  0.3585208530D+00
 SP   3 1.00       0.000000000000
      0.1553961625D+02 -0.1107775495D+00  0.7087426823D-01
      0.3599933586D+01 -0.1480262627D+00  0.3397528391D+00
      0.1013761750D+01  0.1130767015D+01  0.7271585773D+00
 SP   1 1.00       0.000000000000
      0.2700058226D+00  0.1000000000D+01  0.1000000000D+01
 D   1 1.00       0.000000000000
      0.8000000000D+00  0.1000000000D+01
 ****
      9 0
 S   3 1.00       0.000000000000
      0.1873113696D+02  0.3349460434D-01
      0.2825394365D+01  0.2347269535D+00
      0.6401216923D+00  0.8137573261D+00
 S   1 1.00       0.000000000000
      0.1612777588D+00  0.1000000000D+01
 P   1 1.00       0.000000000000
      0.1100000000D+01  0.1000000000D+01
 ****
     10 0
 S   6 1.00       0.000000000000
      0.5484671660D+04  0.1831074430D-02
      0.8252349460D+03  0.1395017220D-01
      0.1880469580D+03  0.6844507810D-01
      0.5296450000D+02  0.2327143360D+00
      0.1689757040D+02  0.4701928980D+00
      0.5799635340D+01  0.3585208530D+00
 SP   3 1.00       0.000000000000
      0.1553961625D+02 -0.1107775495D+00  0.7087426823D-01
      0.3599933586D+01 -0.1480262627D+00  0.3397528391D+00
      0.1013761750D+01  0.1130767015D+01  0.7271585773D+00
 SP   1 1.00       0.000000000000
      0.2700058226D+00  0.1000000000D+01  0.1000000000D+01
 D   1 1.00       0.000000000000
      0.8000000000D+00  0.1000000000D+01
 ****
     11 0
 S   3 1.00       0.000000000000
      0.1873113696D+02  0.3349460434D-01
      0.2825394365D+01  0.2347269535D+00
      0.6401216923D+00  0.8137573261D+00
 S   1 1.00       0.000000000000
      0.1612777588D+00  0.1000000000D+01
 P   1 1.00       0.000000000000
      0.1100000000D+01  0.1000000000D+01
 ****
     12 0
 S   6 1.00       0.000000000000
      0.5484671660D+04  0.1831074430D-02
      0.8252349460D+03  0.1395017220D-01
      0.1880469580D+03  0.6844507810D-01
      0.5296450000D+02  0.2327143360D+00
      0.1689757040D+02  0.4701928980D+00
      0.5799635340D+01  0.3585208530D+00
 SP   3 1.00       0.000000000000
      0.1553961625D+02 -0.1107775495D+00  0.7087426823D-01
      0.3599933586D+01 -0.1480262627D+00  0.3397528391D+00
      0.1013761750D+01  0.1130767015D+01  0.7271585773D+00
 SP   1 1.00       0.000000000000
      0.2700058226D+00  0.1000000000D+01  0.1000000000D+01
 D   1 1.00       0.000000000000
      0.8000000000D+00  0.1000000000D+01
 ****
     13 0
 S   3 1.00       0.000000000000
      0.1873113696D+02  0.3349460434D-01
      0.2825394365D+01  0.2347269535D+00
      0.6401216923D+00  0.8137573261D+00
 S   1 1.00       0.000000000000
      0.1612777588D+00  0.1000000000D+01
 P   1 1.00       0.000000000000
      0.1100000000D+01  0.1000000000D+01
 ****
     14 0
 S   6 1.00       0.000000000000
      0.5484671660D+04  0.1831074430D-02
      0.8252349460D+03  0.1395017220D-01
      0.1880469580D+03  0.6844507810D-01
      0.5296450000D+02  0.2327143360D+00
      0.1689757040D+02  0.4701928980D+00
      0.5799635340D+01  0.3585208530D+00
 SP   3 1.00       0.000000000000
      0.1553961625D+02 -0.1107775495D+00  0.7087426823D-01
      0.3599933586D+01 -0.1480262627D+00  0.3397528391D+00
      0.1013761750D+01  0.1130767015D+01  0.7271585773D+00
 SP   1 1.00       0.000000000000
      0.2700058226D+00  0.1000000000D+01  0.1000000000D+01
 D   1 1.00       0.000000000000
      0.8000000000D+00  0.1000000000D+01
 ****
     15 0
 S   6 1.00       0.000000000000
      0.5484671660D+04  0.1831074430D-02
      0.8252349460D+03  0.1395017220D-01
      0.1880469580D+03  0.6844507810D-01
      0.5296450000D+02  0.2327143360D+00
      0.1689757040D+02  0.4701928980D+00
      0.5799635340D+01  0.3585208530D+00
 SP   3 1.00       0.000000000000
      0.1553961625D+02 -0.1107775495D+00  0.7087426823D-01
      0.3599933586D+01 -0.1480262627D+00  0.3397528391D+00
      0.1013761750D+01  0.1130767015D+01  0.7271585773D+00
 SP   1 1.00       0.000000000000
      0.2700058226D+00  0.1000000000D+01  0.1000000000D+01
 D   1 1.00       0.000000000000
      0.8000000000D+00  0.1000000000D+01
 ****
     16 0
 S   6 1.00       0.000000000000
      0.3047524880D+04  0.1834737132D-02
      0.4573695180D+03  0.1403732281D-01
      0.1039486850D+03  0.6884262226D-01
      0.2921015530D+02  0.2321844432D+00
      0.9286662960D+01  0.4679413484D+00
      0.3163926960D+01  0.3623119853D+00
 SP   3 1.00       0.000000000000
      0.7868272350D+01 -0.1193324198D+00  0.6899906659D-01
      0.1881288540D+01 -0.1608541517D+00  0.3164239610D+00
      0.5442492580D+00  0.1143456438D+01  0.7443082909D+00
 SP   1 1.00       0.000000000000
      0.1687144782D+00  0.1000000000D+01  0.1000000000D+01
 D   1 1.00       0.000000000000
      0.8000000000D+00  0.1000000000D+01
 ****
     17 0
 S   6 1.00       0.000000000000
      0.3047524880D+04  0.1834737132D-02
      0.4573695180D+03  0.1403732281D-01
      0.1039486850D+03  0.6884262226D-01
      0.2921015530D+02  0.2321844432D+00
      0.9286662960D+01  0.4679413484D+00
      0.3163926960D+01  0.3623119853D+00
 SP   3 1.00       0.000000000000
      0.7868272350D+01 -0.1193324198D+00  0.6899906659D-01
      0.1881288540D+01 -0.1608541517D+00  0.3164239610D+00
      0.5442492580D+00  0.1143456438D+01  0.7443082909D+00
 SP   1 1.00       0.000000000000
      0.1687144782D+00  0.1000000000D+01  0.1000000000D+01
 D   1 1.00       0.000000000000
      0.8000000000D+00  0.1000000000D+01
 ****
     18 0
 S   3 1.00       0.000000000000
      0.1873113696D+02  0.3349460434D-01
      0.2825394365D+01  0.2347269535D+00
      0.6401216923D+00  0.8137573261D+00
 S   1 1.00       0.000000000000
      0.1612777588D+00  0.1000000000D+01
 P   1 1.00       0.000000000000
      0.1100000000D+01  0.1000000000D+01
 ****
     19 0
 S   3 1.00       0.000000000000
      0.1873113696D+02  0.3349460434D-01
      0.2825394365D+01  0.2347269535D+00
      0.6401216923D+00  0.8137573261D+00
 S   1 1.00       0.000000000000
      0.1612777588D+00  0.1000000000D+01
 P   1 1.00       0.000000000000
      0.1100000000D+01  0.1000000000D+01
 ****
     20 0
 S   6 1.00       0.000000000000
      0.3047524880D+04  0.1834737132D-02
      0.4573695180D+03  0.1403732281D-01
      0.1039486850D+03  0.6884262226D-01
      0.2921015530D+02  0.2321844432D+00
      0.9286662960D+01  0.4679413484D+00
      0.3163926960D+01  0.3623119853D+00
 SP   3 1.00       0.000000000000
      0.7868272350D+01 -0.1193324198D+00  0.6899906659D-01
      0.1881288540D+01 -0.1608541517D+00  0.3164239610D+00
      0.5442492580D+00  0.1143456438D+01  0.7443082909D+00
 SP   1 1.00       0.000000000000
      0.1687144782D+00  0.1000000000D+01  0.1000000000D+01
 D   1 1.00       0.000000000000
      0.8000000000D+00  0.1000000000D+01
 ****
     21 0
 S   3 1.00       0.000000000000
      0.1873113696D+02  0.3349460434D-01
      0.2825394365D+01  0.2347269535D+00
      0.6401216923D+00  0.8137573261D+00
 S   1 1.00       0.000000000000
      0.1612777588D+00  0.1000000000D+01
 P   1 1.00       0.000000000000
      0.1100000000D+01  0.1000000000D+01
 ****
     22 0
 S   3 1.00       0.000000000000
      0.1873113696D+02  0.3349460434D-01
      0.2825394365D+01  0.2347269535D+00
      0.6401216923D+00  0.8137573261D+00
 S   1 1.00       0.000000000000
      0.1612777588D+00  0.1000000000D+01
 P   1 1.00       0.000000000000
      0.1100000000D+01  0.1000000000D+01
 ****
     23 0
 S   3 1.00       0.000000000000
      0.1873113696D+02  0.3349460434D-01
      0.2825394365D+01  0.2347269535D+00
      0.6401216923D+00  0.8137573261D+00
 S   1 1.00       0.000000000000
      0.1612777588D+00  0.1000000000D+01
 P   1 1.00       0.000000000000
      0.1100000000D+01  0.1000000000D+01
 ****
     24 0
 S   3 1.00       0.000000000000
      0.1873113696D+02  0.3349460434D-01
      0.2825394365D+01  0.2347269535D+00
      0.6401216923D+00  0.8137573261D+00
 S   1 1.00       0.000000000000
      0.1612777588D+00  0.1000000000D+01
 P   1 1.00       0.000000000000
      0.1100000000D+01  0.1000000000D+01
 ****
     25 0
 S   6 1.00       0.000000000000
      0.4173511460D+04  0.1834772160D-02
      0.6274579110D+03  0.1399462700D-01
      0.1429020930D+03  0.6858655181D-01
      0.4023432930D+02  0.2322408730D+00
      0.1282021290D+02  0.4690699481D+00
      0.4390437010D+01  0.3604551991D+00
 SP   3 1.00       0.000000000000
      0.1162636186D+02 -0.1149611817D+00  0.6757974388D-01
      0.2716279807D+01 -0.1691174786D+00  0.3239072959D+00
      0.7722183966D+00  0.1145851947D+01  0.7408951398D+00
 SP   1 1.00       0.000000000000
      0.2120314975D+00  0.1000000000D+01  0.1000000000D+01
 D   1 1.00       0.000000000000
      0.8000000000D+00  0.1000000000D+01
 ****
     26 0
 S   3 1.00       0.000000000000
      0.1873113696D+02  0.3349460434D-01
      0.2825394365D+01  0.2347269535D+00
      0.6401216923D+00  0.8137573261D+00
 S   1 1.00       0.000000000000
      0.1612777588D+00  0.1000000000D+01
 P   1 1.00       0.000000000000
      0.1100000000D+01  0.1000000000D+01
 ****
     27 0
 S   3 1.00       0.000000000000
      0.1873113696D+02  0.3349460434D-01
      0.2825394365D+01  0.2347269535D+00
      0.6401216923D+00  0.8137573261D+00
 S   1 1.00       0.000000000000
      0.1612777588D+00  0.1000000000D+01
 P   1 1.00       0.000000000000
      0.1100000000D+01  0.1000000000D+01
 ****

 There are   283 symmetry adapted cartesian basis functions of A   symmetry.
 There are   283 symmetry adapted basis functions of A   symmetry.
   283 basis functions,   531 primitive gaussians,   283 cartesian basis functions
    65 alpha electrons       65 beta electrons
       nuclear repulsion energy      1378.7539404018 Hartrees.
 IExCor=  402 DFT=T Ex+Corr=B3LYP ExCW=0 ScaHFX=  0.200000
 ScaDFX=  0.800000  0.720000  1.000000  0.810000 ScalE2=  1.000000  1.000000
 IRadAn=      5 IRanWt=     -1 IRanGd=            0 ICorTp=0 IEmpDi=  4
 NAtoms=   27 NActive=   27 NUniq=   27 SFac= 1.00D+00 NAtFMM=   60 NAOKFM=F Big=F
 Integral buffers will be    131072 words long.
 Raffenetti 2 integral format.
 Two-electron integral symmetry is turned on.
 Leave Link  301 at Thu Jan 21 18:14:02 2021, MaxMem=   536870912 cpu:               0.5 elap:               0.1
 (Enter /usr/local//g16/l302.exe)
 NPDir=0 NMtPBC=     1 NCelOv=     1 NCel=       1 NClECP=     1 NCelD=      1
         NCelK=      1 NCelE2=     1 NClLst=     1 CellRange=     0.0.
 One-electron integrals computed using PRISM.
 One-electron integral symmetry used in STVInt
 NBasis=   283 RedAO= T EigKep=  2.56D-03  NBF=   283
 NBsUse=   283 1.00D-06 EigRej= -1.00D+00 NBFU=   283
 Precomputing XC quadrature grid using
 IXCGrd= 4 IRadAn=           5 IRanWt=          -1 IRanGd=           0 AccXCQ= 0.00D+00.
 Generated NRdTot=       0 NPtTot=           0 NUsed=           0 NTot=          32
 NSgBfM=   282   282   282   282   282 MxSgAt=    27 MxSgA2=    27.
 Leave Link  302 at Thu Jan 21 18:14:09 2021, MaxMem=   536870912 cpu:              26.6 elap:               6.7
 (Enter /usr/local//g16/l303.exe)
 DipDrv:  MaxL=1.
 Leave Link  303 at Thu Jan 21 18:14:09 2021, MaxMem=   536870912 cpu:               1.2 elap:               0.4
 (Enter /usr/local//g16/l401.exe)
 ExpMin= 9.98D-02 ExpMax= 1.94D+04 ExpMxC= 2.91D+03 IAcc=3 IRadAn=         5 AccDes= 0.00D+00
 Harris functional with IExCor=  402 and IRadAn=       5 diagonalized for initial guess.
 HarFok:  IExCor=  402 AccDes= 0.00D+00 IRadAn=         5 IDoV= 1 UseB2=F ITyADJ=14
 ICtDFT=  3500011 ScaDFX=  1.000000  1.000000  1.000000  1.000000
 FoFCou: FMM=F IPFlag=           0 FMFlag=      100000 FMFlg1=           0
         NFxFlg=           0 DoJE=T BraDBF=F KetDBF=T FulRan=T
         wScrn=  0.000000 ICntrl=       500 IOpCl=  0 I1Cent=   200000004 NGrid=           0
         NMat0=    1 NMatS0=      1 NMatT0=    0 NMatD0=    1 NMtDS0=    0 NMtDT0=    0
 Petite list used in FoFCou.
 Harris En= -1424.57116465272    
 JPrj=0 DoOrth=F DoCkMO=F.
 Leave Link  401 at Thu Jan 21 18:14:15 2021, MaxMem=   536870912 cpu:              22.8 elap:               5.9
 (Enter /usr/local//g16/l502.exe)
 Integral symmetry usage will be decided dynamically.
 Closed shell SCF:
 Using DIIS extrapolation, IDIIS=  1040.
 NGot=   536870912 LenX=   536705383 LenY=   536624853
 Requested convergence on RMS density matrix=1.00D-08 within 128 cycles.
 Requested convergence on MAX density matrix=1.00D-06.
 Requested convergence on             energy=1.00D-06.
 No special actions if energy rises.
 Fock matrices will be formed incrementally for  20 cycles.
 Integral accuracy reduced to 1.0D-05 until final iterations.

 Cycle   1  Pass 0  IDiag  1:
 FoFJK:  IHMeth= 1 ICntrl=       0 DoSepK=F KAlg= 0 I1Cent=           0 FoldK=F
 IRaf= 830000000 NMat=       1 IRICut=       1 DoRegI=T DoRafI=F ISym2E= 0 IDoP0=0 IntGTp=1.
 FoFCou: FMM=F IPFlag=           0 FMFlag=      100000 FMFlg1=           0
         NFxFlg=           0 DoJE=F BraDBF=F KetDBF=F FulRan=T
         wScrn=  0.000000 ICntrl=         0 IOpCl=  0 I1Cent=           0 NGrid=           0
         NMat0=    1 NMatS0=      1 NMatT0=    0 NMatD0=    1 NMtDS0=    0 NMtDT0=    0
 Symmetry not used in FoFCou.
 E= -1423.72520619645    
 DIIS: error= 2.69D-02 at cycle   1 NSaved=   1.
 NSaved= 1 IEnMin= 1 EnMin= -1423.72520619645     IErMin= 1 ErrMin= 2.69D-02
 ErrMax= 2.69D-02  0.00D+00 EMaxC= 1.00D-01 BMatC= 9.06D-01 BMatP= 9.06D-01
 IDIUse=3 WtCom= 7.31D-01 WtEn= 2.69D-01
 Coeff-Com:  0.100D+01
 Coeff-En:   0.100D+01
 Coeff:      0.100D+01
 Gap=     0.239 Goal=   None    Shift=    0.000
 GapD=    0.239 DampG=1.000 DampE=0.500 DampFc=0.5000 IDamp=-1.
 Damping current iteration by 5.00D-01
 RMSDP=7.85D-03 MaxDP=4.15D-01              OVMax= 3.24D-01

 Cycle   2  Pass 0  IDiag  1:
 RMSU=  3.93D-03    CP:  9.96D-01
 E= -1423.84946973409     Delta-E=       -0.124263537639 Rises=F Damp=T
 DIIS: error= 1.35D-02 at cycle   2 NSaved=   2.
 NSaved= 2 IEnMin= 2 EnMin= -1423.84946973409     IErMin= 2 ErrMin= 1.35D-02
 ErrMax= 1.35D-02  0.00D+00 EMaxC= 1.00D-01 BMatC= 1.41D-01 BMatP= 9.06D-01
 IDIUse=3 WtCom= 8.65D-01 WtEn= 1.35D-01
 Coeff-Com:  0.250D+00 0.750D+00
 Coeff-En:   0.418D+00 0.582D+00
 Coeff:      0.273D+00 0.727D+00
 Gap=     0.241 Goal=   None    Shift=    0.000
 RMSDP=2.32D-03 MaxDP=1.25D-01 DE=-1.24D-01 OVMax= 2.02D-01

 Cycle   3  Pass 0  IDiag  1:
 RMSU=  1.67D-03    CP:  9.93D-01  5.89D-01
 E= -1424.35308836326     Delta-E=       -0.503618629165 Rises=F Damp=F
 DIIS: error= 1.14D-02 at cycle   3 NSaved=   3.
 NSaved= 3 IEnMin= 3 EnMin= -1424.35308836326     IErMin= 3 ErrMin= 1.14D-02
 ErrMax= 1.14D-02  0.00D+00 EMaxC= 1.00D-01 BMatC= 8.56D-02 BMatP= 1.41D-01
 IDIUse=3 WtCom= 8.86D-01 WtEn= 1.14D-01
 Coeff-Com:  0.129D+00 0.459D+00 0.413D+00
 Coeff-En:   0.000D+00 0.000D+00 0.100D+01
 Coeff:      0.114D+00 0.406D+00 0.480D+00
 Gap=     0.242 Goal=   None    Shift=    0.000
 RMSDP=1.24D-03 MaxDP=5.18D-02 DE=-5.04D-01 OVMax= 7.99D-02

 Cycle   4  Pass 0  IDiag  1:
 RMSU=  6.78D-04    CP:  9.96D-01  6.68D-01  4.10D-01
 E= -1424.41733052433     Delta-E=       -0.064242161069 Rises=F Damp=F
 DIIS: error= 3.71D-03 at cycle   4 NSaved=   4.
 NSaved= 4 IEnMin= 4 EnMin= -1424.41733052433     IErMin= 4 ErrMin= 3.71D-03
 ErrMax= 3.71D-03  0.00D+00 EMaxC= 1.00D-01 BMatC= 1.16D-02 BMatP= 8.56D-02
 IDIUse=3 WtCom= 9.63D-01 WtEn= 3.71D-02
 Coeff-Com:  0.158D-01 0.827D-01 0.274D+00 0.628D+00
 Coeff-En:   0.000D+00 0.000D+00 0.110D+00 0.890D+00
 Coeff:      0.153D-01 0.796D-01 0.268D+00 0.637D+00
 Gap=     0.238 Goal=   None    Shift=    0.000
 RMSDP=3.59D-04 MaxDP=1.70D-02 DE=-6.42D-02 OVMax= 2.45D-02

 Cycle   5  Pass 0  IDiag  1:
 RMSU=  2.19D-04    CP:  9.96D-01  6.57D-01  5.16D-01  6.77D-01
 E= -1424.42509496331     Delta-E=       -0.007764438978 Rises=F Damp=F
 DIIS: error= 9.88D-04 at cycle   5 NSaved=   5.
 NSaved= 5 IEnMin= 5 EnMin= -1424.42509496331     IErMin= 5 ErrMin= 9.88D-04
 ErrMax= 9.88D-04  0.00D+00 EMaxC= 1.00D-01 BMatC= 1.09D-03 BMatP= 1.16D-02
 IDIUse=3 WtCom= 9.90D-01 WtEn= 9.88D-03
 Coeff-Com: -0.289D-03 0.117D-01 0.117D+00 0.368D+00 0.504D+00
 Coeff-En:   0.000D+00 0.000D+00 0.000D+00 0.325D-01 0.967D+00
 Coeff:     -0.286D-03 0.116D-01 0.115D+00 0.365D+00 0.509D+00
 Gap=     0.239 Goal=   None    Shift=    0.000
 RMSDP=1.31D-04 MaxDP=4.63D-03 DE=-7.76D-03 OVMax= 5.67D-03

 Cycle   6  Pass 0  IDiag  1:
 RMSU=  5.44D-05    CP:  9.96D-01  6.60D-01  5.27D-01  7.46D-01  5.08D-01
 E= -1424.42599038671     Delta-E=       -0.000895423406 Rises=F Damp=F
 DIIS: error= 2.41D-04 at cycle   6 NSaved=   6.
 NSaved= 6 IEnMin= 6 EnMin= -1424.42599038671     IErMin= 6 ErrMin= 2.41D-04
 ErrMax= 2.41D-04  0.00D+00 EMaxC= 1.00D-01 BMatC= 5.89D-05 BMatP= 1.09D-03
 IDIUse=3 WtCom= 9.98D-01 WtEn= 2.41D-03
 Coeff-Com: -0.911D-03 0.107D-03 0.366D-01 0.124D+00 0.257D+00 0.583D+00
 Coeff-En:   0.000D+00 0.000D+00 0.000D+00 0.000D+00 0.000D+00 0.100D+01
 Coeff:     -0.909D-03 0.107D-03 0.365D-01 0.124D+00 0.256D+00 0.584D+00
 Gap=     0.239 Goal=   None    Shift=    0.000
 RMSDP=2.90D-05 MaxDP=1.60D-03 DE=-8.95D-04 OVMax= 1.37D-03

 Cycle   7  Pass 0  IDiag  1:
 RMSU=  1.71D-05    CP:  9.96D-01  6.58D-01  5.26D-01  7.47D-01  5.52D-01
                    CP:  6.29D-01
 E= -1424.42603929886     Delta-E=       -0.000048912146 Rises=F Damp=F
 DIIS: error= 4.97D-05 at cycle   7 NSaved=   7.
 NSaved= 7 IEnMin= 7 EnMin= -1424.42603929886     IErMin= 7 ErrMin= 4.97D-05
 ErrMax= 4.97D-05  0.00D+00 EMaxC= 1.00D-01 BMatC= 2.61D-06 BMatP= 5.89D-05
 IDIUse=1 WtCom= 1.00D+00 WtEn= 0.00D+00
 Coeff-Com: -0.331D-03-0.118D-02 0.726D-02 0.245D-01 0.760D-01 0.245D+00
 Coeff-Com:  0.649D+00
 Coeff:     -0.331D-03-0.118D-02 0.726D-02 0.245D-01 0.760D-01 0.245D+00
 Coeff:      0.649D+00
 Gap=     0.239 Goal=   None    Shift=    0.000
 RMSDP=6.73D-06 MaxDP=5.14D-04 DE=-4.89D-05 OVMax= 2.70D-04

 Initial convergence to 1.0D-05 achieved.  Increase integral accuracy.
 Cycle   8  Pass 1  IDiag  1:
 E= -1424.42604203577     Delta-E=       -0.000002736912 Rises=F Damp=F
 DIIS: error= 1.61D-05 at cycle   1 NSaved=   1.
 NSaved= 1 IEnMin= 1 EnMin= -1424.42604203577     IErMin= 1 ErrMin= 1.61D-05
 ErrMax= 1.61D-05  0.00D+00 EMaxC= 1.00D-01 BMatC= 3.18D-07 BMatP= 3.18D-07
 IDIUse=1 WtCom= 1.00D+00 WtEn= 0.00D+00
 Coeff-Com:  0.100D+01
 Coeff:      0.100D+01
 Gap=     0.239 Goal=   None    Shift=    0.000
 RMSDP=6.73D-06 MaxDP=5.14D-04 DE=-2.74D-06 OVMax= 2.45D-04

 Cycle   9  Pass 1  IDiag  1:
 RMSU=  5.34D-06    CP:  1.00D+00
 E= -1424.42604170770     Delta-E=        0.000000328072 Rises=F Damp=F
 DIIS: error= 2.69D-05 at cycle   2 NSaved=   2.
 NSaved= 2 IEnMin= 1 EnMin= -1424.42604203577     IErMin= 1 ErrMin= 1.61D-05
 ErrMax= 2.69D-05  0.00D+00 EMaxC= 1.00D-01 BMatC= 7.58D-07 BMatP= 3.18D-07
 IDIUse=1 WtCom= 1.00D+00 WtEn= 0.00D+00
 Coeff-Com:  0.616D+00 0.384D+00
 Coeff:      0.616D+00 0.384D+00
 Gap=     0.239 Goal=   None    Shift=    0.000
 RMSDP=2.74D-06 MaxDP=1.16D-04 DE= 3.28D-07 OVMax= 1.89D-04

 Cycle  10  Pass 1  IDiag  1:
 RMSU=  1.93D-06    CP:  1.00D+00  6.36D-01
 E= -1424.42604227010     Delta-E=       -0.000000562403 Rises=F Damp=F
 DIIS: error= 5.60D-06 at cycle   3 NSaved=   3.
 NSaved= 3 IEnMin= 3 EnMin= -1424.42604227010     IErMin= 3 ErrMin= 5.60D-06
 ErrMax= 5.60D-06  0.00D+00 EMaxC= 1.00D-01 BMatC= 1.85D-08 BMatP= 3.18D-07
 IDIUse=1 WtCom= 1.00D+00 WtEn= 0.00D+00
 Coeff-Com:  0.153D+00 0.163D+00 0.684D+00
 Coeff:      0.153D+00 0.163D+00 0.684D+00
 Gap=     0.239 Goal=   None    Shift=    0.000
 RMSDP=6.43D-07 MaxDP=3.25D-05 DE=-5.62D-07 OVMax= 4.52D-05

 Cycle  11  Pass 1  IDiag  1:
 RMSU=  5.23D-07    CP:  1.00D+00  6.76D-01  8.41D-01
 E= -1424.42604227821     Delta-E=       -0.000000008110 Rises=F Damp=F
 DIIS: error= 3.38D-06 at cycle   4 NSaved=   4.
 NSaved= 4 IEnMin= 4 EnMin= -1424.42604227821     IErMin= 4 ErrMin= 3.38D-06
 ErrMax= 3.38D-06  0.00D+00 EMaxC= 1.00D-01 BMatC= 7.99D-09 BMatP= 1.85D-08
 IDIUse=1 WtCom= 1.00D+00 WtEn= 0.00D+00
 Coeff-Com:  0.974D-02 0.494D-01 0.449D+00 0.492D+00
 Coeff:      0.974D-02 0.494D-01 0.449D+00 0.492D+00
 Gap=     0.239 Goal=   None    Shift=    0.000
 RMSDP=2.81D-07 MaxDP=1.36D-05 DE=-8.11D-09 OVMax= 1.74D-05

 Cycle  12  Pass 1  IDiag  1:
 RMSU=  1.00D-07    CP:  1.00D+00  6.77D-01  8.92D-01  5.36D-01
 E= -1424.42604228437     Delta-E=       -0.000000006156 Rises=F Damp=F
 DIIS: error= 4.50D-07 at cycle   5 NSaved=   5.
 NSaved= 5 IEnMin= 5 EnMin= -1424.42604228437     IErMin= 5 ErrMin= 4.50D-07
 ErrMax= 4.50D-07  0.00D+00 EMaxC= 1.00D-01 BMatC= 2.33D-10 BMatP= 7.99D-09
 IDIUse=1 WtCom= 1.00D+00 WtEn= 0.00D+00
 Coeff-Com: -0.124D-02 0.194D-01 0.210D+00 0.262D+00 0.510D+00
 Coeff:     -0.124D-02 0.194D-01 0.210D+00 0.262D+00 0.510D+00
 Gap=     0.239 Goal=   None    Shift=    0.000
 RMSDP=5.46D-08 MaxDP=1.93D-06 DE=-6.16D-09 OVMax= 2.56D-06

 Cycle  13  Pass 1  IDiag  1:
 RMSU=  3.02D-08    CP:  1.00D+00  6.77D-01  8.92D-01  5.44D-01  5.50D-01
 E= -1424.42604228453     Delta-E=       -0.000000000166 Rises=F Damp=F
 DIIS: error= 1.29D-07 at cycle   6 NSaved=   6.
 NSaved= 6 IEnMin= 6 EnMin= -1424.42604228453     IErMin= 6 ErrMin= 1.29D-07
 ErrMax= 1.29D-07  0.00D+00 EMaxC= 1.00D-01 BMatC= 1.70D-11 BMatP= 2.33D-10
 IDIUse=1 WtCom= 1.00D+00 WtEn= 0.00D+00
 Coeff-Com: -0.143D-02 0.687D-02 0.815D-01 0.106D+00 0.281D+00 0.526D+00
 Coeff:     -0.143D-02 0.687D-02 0.815D-01 0.106D+00 0.281D+00 0.526D+00
 Gap=     0.239 Goal=   None    Shift=    0.000
 RMSDP=1.56D-08 MaxDP=6.40D-07 DE=-1.66D-10 OVMax= 7.32D-07

 Cycle  14  Pass 1  IDiag  1:
 RMSU=  1.05D-08    CP:  1.00D+00  6.78D-01  8.93D-01  5.45D-01  6.04D-01
                    CP:  6.68D-01
 E= -1424.42604228458     Delta-E=       -0.000000000051 Rises=F Damp=F
 DIIS: error= 6.27D-08 at cycle   7 NSaved=   7.
 NSaved= 7 IEnMin= 7 EnMin= -1424.42604228458     IErMin= 7 ErrMin= 6.27D-08
 ErrMax= 6.27D-08  0.00D+00 EMaxC= 1.00D-01 BMatC= 1.66D-12 BMatP= 1.70D-11
 IDIUse=1 WtCom= 1.00D+00 WtEn= 0.00D+00
 Coeff-Com: -0.724D-03 0.282D-02 0.344D-01 0.457D-01 0.133D+00 0.313D+00
 Coeff-Com:  0.472D+00
 Coeff:     -0.724D-03 0.282D-02 0.344D-01 0.457D-01 0.133D+00 0.313D+00
 Coeff:      0.472D+00
 Gap=     0.239 Goal=   None    Shift=    0.000
 RMSDP=4.86D-09 MaxDP=2.87D-07 DE=-5.09D-11 OVMax= 2.76D-07

 SCF Done:  E(RB3LYP) =  -1424.42604228     A.U. after   14 cycles
            NFock= 14  Conv=0.49D-08     -V/T= 2.0065
 KE= 1.415230918395D+03 PE=-6.120115211238D+03 EE= 1.901704310156D+03
 Leave Link  502 at Thu Jan 21 18:16:03 2021, MaxMem=   536870912 cpu:             432.6 elap:             107.4
 (Enter /usr/local//g16/l601.exe)
 Copying SCF densities to generalized density rwf, IOpCl= 0 IROHF=0.

 **********************************************************************

            Population analysis using the SCF density.

 **********************************************************************

 Orbital symmetries:
       Occupied  (A) (A) (A) (A) (A) (A) (A) (A) (A) (A) (A) (A)
                 (A) (A) (A) (A) (A) (A) (A) (A) (A) (A) (A) (A)
                 (A) (A) (A) (A) (A) (A) (A) (A) (A) (A) (A) (A)
                 (A) (A) (A) (A) (A) (A) (A) (A) (A) (A) (A) (A)
                 (A) (A) (A) (A) (A) (A) (A) (A) (A) (A) (A) (A)
                 (A) (A) (A) (A) (A)
       Virtual   (A) (A) (A) (A) (A) (A) (A) (A) (A) (A) (A) (A)
                 (A) (A) (A) (A) (A) (A) (A) (A) (A) (A) (A) (A)
                 (A) (A) (A) (A) (A) (A) (A) (A) (A) (A) (A) (A)
                 (A) (A) (A) (A) (A) (A) (A) (A) (A) (A) (A) (A)
                 (A) (A) (A) (A) (A) (A) (A) (A) (A) (A) (A) (A)
                 (A) (A) (A) (A) (A) (A) (A) (A) (A) (A) (A) (A)
                 (A) (A) (A) (A) (A) (A) (A) (A) (A) (A) (A) (A)
                 (A) (A) (A) (A) (A) (A) (A) (A) (A) (A) (A) (A)
                 (A) (A) (A) (A) (A) (A) (A) (A) (A) (A) (A) (A)
                 (A) (A) (A) (A) (A) (A) (A) (A) (A) (A) (A) (A)
                 (A) (A) (A) (A) (A) (A) (A) (A) (A) (A) (A) (A)
                 (A) (A) (A) (A) (A) (A) (A) (A) (A) (A) (A) (A)
                 (A) (A) (A) (A) (A) (A) (A) (A) (A) (A) (A) (A)
                 (A) (A) (A) (A) (A) (A) (A) (A) (A) (A) (A) (A)
                 (A) (A) (A) (A) (A) (A) (A) (A) (A) (A) (A) (A)
                 (A) (A) (A) (A) (A) (A) (A) (A) (A) (A) (A) (A)
                 (A) (A) (A) (A) (A) (A) (A) (A) (A) (A) (A) (A)
                 (A) (A) (A) (A) (A) (A) (A) (A) (A) (A) (A) (A)
                 (A) (A)
 The electronic state is 1-A.
 Alpha  occ. eigenvalues --  -77.24496 -77.22088 -19.21357 -19.21205 -19.19258
 Alpha  occ. eigenvalues --  -19.17847 -19.17584 -19.14348 -19.11189 -14.30840
 Alpha  occ. eigenvalues --  -10.28149 -10.20520 -10.20370 -10.17575  -6.69500
 Alpha  occ. eigenvalues --   -6.67045  -4.85942  -4.85820  -4.85565  -4.83476
 Alpha  occ. eigenvalues --   -4.83350  -4.83158  -1.10682  -1.08111  -1.06058
 Alpha  occ. eigenvalues --   -1.05005  -1.03199  -0.99064  -0.96519  -0.87553
 Alpha  occ. eigenvalues --   -0.79953  -0.72897  -0.66926  -0.64946  -0.61013
 Alpha  occ. eigenvalues --   -0.58725  -0.57745  -0.55203  -0.53020  -0.51047
 Alpha  occ. eigenvalues --   -0.49115  -0.48119  -0.46261  -0.45660  -0.44950
 Alpha  occ. eigenvalues --   -0.44413  -0.42757  -0.42288  -0.41059  -0.39622
 Alpha  occ. eigenvalues --   -0.39032  -0.38507  -0.37843  -0.36992  -0.36059
 Alpha  occ. eigenvalues --   -0.35609  -0.34817  -0.33960  -0.32936  -0.32551
 Alpha  occ. eigenvalues --   -0.31958  -0.30335  -0.29310  -0.26804  -0.23054
 Alpha virt. eigenvalues --    0.00856   0.02929   0.04447   0.05143   0.07840
 Alpha virt. eigenvalues --    0.08389   0.09359   0.10469   0.11318   0.11858
 Alpha virt. eigenvalues --    0.12748   0.13352   0.14254   0.14892   0.15600
 Alpha virt. eigenvalues --    0.17312   0.18283   0.18830   0.19307   0.21260
 Alpha virt. eigenvalues --    0.22311   0.23055   0.24717   0.25843   0.27514
 Alpha virt. eigenvalues --    0.30199   0.30760   0.32404   0.37865   0.38673
 Alpha virt. eigenvalues --    0.40207   0.40317   0.43382   0.44055   0.50147
 Alpha virt. eigenvalues --    0.52141   0.53228   0.55142   0.56913   0.58258
 Alpha virt. eigenvalues --    0.59370   0.60904   0.64796   0.66283   0.69579
 Alpha virt. eigenvalues --    0.71531   0.72452   0.73285   0.73870   0.74277
 Alpha virt. eigenvalues --    0.74351   0.77947   0.78327   0.79629   0.80350
 Alpha virt. eigenvalues --    0.81262   0.83000   0.84209   0.84307   0.86529
 Alpha virt. eigenvalues --    0.86887   0.87865   0.88519   0.88953   0.89404
 Alpha virt. eigenvalues --    0.91045   0.91334   0.93020   0.93218   0.94486
 Alpha virt. eigenvalues --    0.95929   0.96454   0.98611   0.99756   1.00121
 Alpha virt. eigenvalues --    1.01070   1.01672   1.02891   1.03959   1.05612
 Alpha virt. eigenvalues --    1.06464   1.08253   1.09800   1.12147   1.13846
 Alpha virt. eigenvalues --    1.14444   1.16928   1.18123   1.18557   1.20587
 Alpha virt. eigenvalues --    1.23503   1.24935   1.27595   1.28853   1.30787
 Alpha virt. eigenvalues --    1.31965   1.34737   1.36308   1.38702   1.42313
 Alpha virt. eigenvalues --    1.42996   1.45105   1.48334   1.49624   1.53124
 Alpha virt. eigenvalues --    1.53632   1.55583   1.58024   1.59872   1.61451
 Alpha virt. eigenvalues --    1.62009   1.62446   1.66157   1.66487   1.67805
 Alpha virt. eigenvalues --    1.69058   1.70061   1.72328   1.74085   1.74769
 Alpha virt. eigenvalues --    1.75620   1.80941   1.81255   1.82996   1.83123
 Alpha virt. eigenvalues --    1.85208   1.86709   1.87967   1.88565   1.91276
 Alpha virt. eigenvalues --    1.91869   1.95025   1.95443   1.97864   1.98804
 Alpha virt. eigenvalues --    2.02026   2.03457   2.06373   2.07966   2.09608
 Alpha virt. eigenvalues --    2.09952   2.13245   2.14152   2.16320   2.18083
 Alpha virt. eigenvalues --    2.19584   2.23719   2.25149   2.25515   2.28186
 Alpha virt. eigenvalues --    2.29109   2.30745   2.31706   2.33527   2.35340
 Alpha virt. eigenvalues --    2.36554   2.39482   2.41414   2.42018   2.43389
 Alpha virt. eigenvalues --    2.43969   2.47533   2.51152   2.51435   2.56529
 Alpha virt. eigenvalues --    2.58036   2.59340   2.60176   2.60277   2.61366
 Alpha virt. eigenvalues --    2.63195   2.64043   2.64887   2.65995   2.67633
 Alpha virt. eigenvalues --    2.68366   2.70479   2.72503   2.75145   2.77419
 Alpha virt. eigenvalues --    2.78366   2.82677   2.84336   2.84939   2.85354
 Alpha virt. eigenvalues --    2.89448   2.90601   2.94753   2.95988   2.96811
 Alpha virt. eigenvalues --    2.98841   3.23796   3.28478   3.29914   3.32225
 Alpha virt. eigenvalues --    3.32737   3.34602   3.36105   3.38856   3.39994
 Alpha virt. eigenvalues --    3.43755   3.48570   3.51455   3.54228   3.55102
 Alpha virt. eigenvalues --    3.58274   3.78797   3.91236   3.93157   3.96632
 Alpha virt. eigenvalues --    4.02150   4.10785   4.19184   4.19248   4.31159
 Alpha virt. eigenvalues --    4.42815   4.56679   4.73519
     Molecular Orbital Coefficients:
                           1         2         3         4         5
                           O         O         O         O         O
     Eigenvalues --   -77.24496 -77.22088 -19.21357 -19.21205 -19.19258
   1 1   C  1S         -0.00005  -0.00004  -0.00006  -0.00002  -0.00002
   2        2S         -0.00009  -0.00007  -0.00032  -0.00014  -0.00013
   3        2PX         0.00002   0.00000   0.00002   0.00002  -0.00006
   4        2PY        -0.00003   0.00004   0.00006  -0.00001  -0.00001
   5        2PZ         0.00000   0.00000   0.00006  -0.00007   0.00005
   6        3S          0.00138   0.00088   0.00240   0.00077   0.00092
   7        3PX         0.00029   0.00003   0.00035   0.00013   0.00033
   8        3PY        -0.00029   0.00048  -0.00088  -0.00031   0.00081
   9        3PZ        -0.00007  -0.00007  -0.00005   0.00026   0.00029
  10        4XX        -0.00014  -0.00009  -0.00002   0.00002  -0.00003
  11        4YY        -0.00012  -0.00012  -0.00006   0.00002   0.00003
  12        4ZZ        -0.00009  -0.00007  -0.00003   0.00000   0.00002
  13        4XY         0.00005   0.00000   0.00000  -0.00004   0.00002
  14        4XZ         0.00002  -0.00000  -0.00001  -0.00000  -0.00001
  15        4YZ        -0.00002   0.00002   0.00002   0.00001  -0.00001
  16 2   O  1S          0.00000   0.00000   0.00002   0.00001  -0.00004
  17        2S          0.00001   0.00003   0.00002  -0.00014   0.00013
  18        2PX        -0.00001  -0.00001   0.00004  -0.00005   0.00003
  19        2PY        -0.00000   0.00000   0.00002   0.00005   0.00003
  20        2PZ         0.00002   0.00001  -0.00003   0.00002  -0.00004
  21        3S         -0.00025  -0.00025  -0.00009   0.00040  -0.00057
  22        3PX        -0.00004   0.00003   0.00000   0.00015  -0.00015
  23        3PY         0.00010  -0.00011  -0.00003  -0.00023  -0.00003
  24        3PZ         0.00013   0.00013   0.00030  -0.00005   0.00029
  25        4XX         0.00002  -0.00000   0.00001  -0.00012   0.00010
  26        4YY        -0.00002   0.00002   0.00004  -0.00012   0.00014
  27        4ZZ        -0.00001  -0.00000  -0.00003  -0.00014   0.00008
  28        4XY        -0.00002   0.00002  -0.00002  -0.00005  -0.00000
  29        4XZ         0.00000  -0.00000   0.00001  -0.00002   0.00002
  30        4YZ        -0.00001   0.00002  -0.00002   0.00001   0.00003
  31 3   H  1S         -0.00000  -0.00001   0.00013  -0.00002   0.00011
  32        2S         -0.00013  -0.00013  -0.00031   0.00010  -0.00022
  33        3PX        -0.00002  -0.00000   0.00003  -0.00004   0.00005
  34        3PY         0.00002  -0.00002   0.00003  -0.00000  -0.00001
  35        3PZ         0.00003   0.00003   0.00000  -0.00001   0.00002
  36 4   P  1S          0.99625   0.00004   0.00001   0.00001  -0.00000
  37        2S          0.01418  -0.00001  -0.00001  -0.00002  -0.00006
  38        2PX        -0.00000  -0.00001  -0.00003   0.00002  -0.00001
  39        2PY        -0.00001   0.00001  -0.00002   0.00006   0.00001
  40        2PZ         0.00003  -0.00000  -0.00005  -0.00001   0.00001
  41        3S         -0.02725   0.00005   0.00033   0.00020  -0.00024
  42        3PX         0.00012   0.00010   0.00002  -0.00010   0.00010
  43        3PY        -0.00006  -0.00007   0.00010  -0.00012  -0.00013
  44        3PZ        -0.00004   0.00001   0.00016   0.00008  -0.00011
  45        4S          0.00286   0.00002  -0.00359  -0.00255   0.00129
  46        4PX        -0.00007  -0.00007   0.00019   0.00053   0.00003
  47        4PY         0.00025  -0.00008  -0.00132   0.00149   0.00082
  48        4PZ        -0.00014   0.00002  -0.00186  -0.00157   0.00034
  49        5XX         0.00942  -0.00004   0.00001  -0.00001  -0.00004
  50        5YY         0.00945  -0.00008  -0.00001   0.00027  -0.00009
  51        5ZZ         0.00949  -0.00001   0.00010  -0.00010  -0.00003
  52        5XY         0.00004   0.00004   0.00005   0.00008   0.00002
  53        5XZ         0.00001   0.00000   0.00025  -0.00005   0.00003
  54        5YZ        -0.00002  -0.00001   0.00005  -0.00003  -0.00003
  55 5   P  1S         -0.00004   0.99625  -0.00000   0.00000   0.00001
  56        2S          0.00000   0.01417  -0.00005   0.00002   0.00001
  57        2PX         0.00001   0.00002  -0.00000   0.00000  -0.00002
  58        2PY        -0.00001  -0.00001  -0.00000   0.00000  -0.00002
  59        2PZ        -0.00000   0.00003  -0.00000   0.00000  -0.00005
  60        3S          0.00014  -0.02722  -0.00011   0.00006   0.00033
  61        3PX        -0.00006   0.00003  -0.00003   0.00000   0.00011
  62        3PY         0.00007   0.00015   0.00002  -0.00005  -0.00005
  63        3PZ         0.00005  -0.00008   0.00001   0.00000   0.00011
  64        4S         -0.00056   0.00281   0.00071  -0.00023  -0.00346
  65        4PX        -0.00019  -0.00023   0.00019  -0.00018  -0.00159
  66        4PY         0.00022  -0.00020  -0.00022   0.00013   0.00041
  67        4PZ         0.00000   0.00002   0.00023   0.00003  -0.00164
  68        5XX        -0.00008   0.00945  -0.00007   0.00002  -0.00009
  69        5YY        -0.00009   0.00940  -0.00004   0.00002   0.00004
  70        5ZZ        -0.00006   0.00946  -0.00006   0.00000   0.00022
  71        5XY         0.00002  -0.00001  -0.00000   0.00001   0.00002
  72        5XZ        -0.00001   0.00003   0.00001   0.00000   0.00005
  73        5YZ         0.00001   0.00002  -0.00001   0.00000   0.00020
  74 6   O  1S         -0.00001   0.00001   0.99268  -0.00060   0.00000
  75        2S         -0.00006   0.00005   0.02576  -0.00020   0.00012
  76        2PX         0.00003  -0.00001   0.00049   0.00003  -0.00001
  77        2PY         0.00003   0.00001  -0.00042   0.00002  -0.00002
  78        2PZ         0.00008  -0.00001  -0.00071  -0.00004  -0.00002
  79        3S          0.00082  -0.00019   0.01286   0.00114  -0.00063
  80        3PX        -0.00005   0.00010  -0.00064  -0.00046   0.00010
  81        3PY        -0.00016  -0.00004   0.00019  -0.00018   0.00003
  82        3PZ        -0.00033   0.00004  -0.00024   0.00001   0.00016
  83        4XX        -0.00008   0.00006  -0.00827  -0.00010   0.00003
  84        4YY        -0.00004   0.00004  -0.00825  -0.00016   0.00008
  85        4ZZ        -0.00019   0.00005  -0.00828  -0.00010   0.00004
  86        4XY        -0.00005   0.00000   0.00001   0.00000   0.00000
  87        4XZ        -0.00016  -0.00002  -0.00002   0.00001   0.00001
  88        4YZ        -0.00002   0.00000  -0.00003  -0.00002   0.00001
  89 7   H  1S         -0.00010  -0.00003   0.00041   0.00004   0.00005
  90        2S         -0.00021  -0.00000  -0.00090   0.00030  -0.00010
  91        3PX         0.00001   0.00002   0.00007  -0.00005  -0.00001
  92        3PY        -0.00000  -0.00000  -0.00001  -0.00001  -0.00001
  93        3PZ        -0.00000  -0.00001   0.00003  -0.00002  -0.00000
  94 8   O  1S         -0.00002  -0.00000   0.00053   0.99270  -0.00001
  95        2S         -0.00009   0.00000  -0.00007   0.02581  -0.00002
  96        2PX        -0.00002   0.00000   0.00004   0.00003  -0.00001
  97        2PY        -0.00008  -0.00000   0.00002   0.00029  -0.00000
  98        2PZ         0.00003   0.00000  -0.00002  -0.00095   0.00001
  99        3S          0.00097  -0.00003   0.00065   0.01254   0.00009
 100        3PX         0.00010  -0.00001  -0.00013   0.00008   0.00002
 101        3PY         0.00031   0.00001   0.00013   0.00051  -0.00000
 102        3PZ        -0.00019  -0.00000   0.00019   0.00042  -0.00004
 103        4XX        -0.00007  -0.00000  -0.00009  -0.00819  -0.00001
 104        4YY        -0.00029   0.00000  -0.00006  -0.00823  -0.00002
 105        4ZZ        -0.00000  -0.00001  -0.00009  -0.00820  -0.00002
 106        4XY        -0.00005  -0.00000  -0.00005  -0.00002  -0.00000
 107        4XZ         0.00001  -0.00000  -0.00004   0.00000  -0.00000
 108        4YZ         0.00005  -0.00000  -0.00001   0.00003  -0.00001
 109 9   H  1S         -0.00010   0.00000   0.00007   0.00040  -0.00002
 110        2S         -0.00022  -0.00001  -0.00030  -0.00090   0.00013
 111        3PX        -0.00000   0.00000  -0.00001  -0.00002   0.00000
 112        3PY         0.00000  -0.00000  -0.00002  -0.00008   0.00001
 113        3PZ        -0.00001   0.00000   0.00002  -0.00007   0.00000
 114 10  O  1S         -0.00003  -0.00001  -0.00002   0.00000   0.00008
 115        2S         -0.00012  -0.00008  -0.00010  -0.00003  -0.00027
 116        2PX         0.00002   0.00010  -0.00001   0.00000  -0.00002
 117        2PY         0.00003   0.00002   0.00005  -0.00002   0.00001
 118        2PZ        -0.00000  -0.00002  -0.00002   0.00001  -0.00000
 119        3S          0.00059   0.00088   0.00033   0.00021   0.00177
 120        3PX        -0.00013  -0.00037   0.00002  -0.00002  -0.00020
 121        3PY        -0.00006  -0.00007  -0.00026   0.00004  -0.00003
 122        3PZ        -0.00000   0.00009   0.00003  -0.00004   0.00027
 123        4XX        -0.00009  -0.00025  -0.00009  -0.00002  -0.00019
 124        4YY        -0.00011  -0.00002  -0.00003  -0.00003  -0.00020
 125        4ZZ        -0.00010  -0.00007  -0.00010  -0.00001  -0.00026
 126        4XY         0.00001  -0.00003  -0.00001   0.00000   0.00004
 127        4XZ        -0.00002   0.00009  -0.00001  -0.00000   0.00003
 128        4YZ         0.00001   0.00003  -0.00002   0.00000  -0.00008
 129 11  H  1S         -0.00005  -0.00006  -0.00009   0.00002   0.00003
 130        2S         -0.00014  -0.00011   0.00001  -0.00024  -0.00002
 131        3PX         0.00000  -0.00000   0.00001   0.00000  -0.00001
 132        3PY         0.00001   0.00000   0.00000  -0.00001   0.00004
 133        3PZ         0.00001   0.00001   0.00001  -0.00002  -0.00001
 134 12  O  1S         -0.00000  -0.00002   0.00002   0.00000   0.99270
 135        2S         -0.00002  -0.00007   0.00002  -0.00001   0.02579
 136        2PX        -0.00000   0.00003   0.00000  -0.00001  -0.00090
 137        2PY        -0.00000   0.00002   0.00002   0.00000   0.00016
 138        2PZ        -0.00001   0.00007  -0.00002   0.00000  -0.00035
 139        3S          0.00012   0.00088  -0.00016   0.00007   0.01264
 140        3PX         0.00001  -0.00018  -0.00001   0.00003   0.00032
 141        3PY        -0.00001  -0.00004  -0.00003  -0.00002  -0.00049
 142        3PZ         0.00001  -0.00031   0.00007  -0.00002  -0.00035
 143        4XX         0.00000  -0.00001  -0.00002  -0.00001  -0.00821
 144        4YY        -0.00000  -0.00009   0.00001  -0.00001  -0.00819
 145        4ZZ        -0.00001  -0.00023   0.00000  -0.00001  -0.00825
 146        4XY        -0.00001  -0.00006   0.00001   0.00000  -0.00001
 147        4XZ        -0.00001  -0.00005   0.00001  -0.00000  -0.00003
 148        4YZ         0.00000  -0.00011  -0.00000   0.00000  -0.00002
 149 13  H  1S         -0.00002  -0.00009   0.00002   0.00001   0.00040
 150        2S         -0.00002  -0.00026  -0.00003  -0.00003  -0.00095
 151        3PX        -0.00001  -0.00002   0.00001   0.00000  -0.00006
 152        3PY         0.00000   0.00000   0.00001  -0.00000   0.00007
 153        3PZ         0.00000  -0.00000  -0.00001   0.00000   0.00006
 154 14  O  1S         -0.00001   0.00001  -0.00000  -0.00000  -0.00001
 155        2S         -0.00003  -0.00006  -0.00001  -0.00000   0.00010
 156        2PX        -0.00000  -0.00015   0.00000  -0.00001   0.00001
 157        2PY         0.00001   0.00006  -0.00000   0.00001  -0.00001
 158        2PZ         0.00001  -0.00012   0.00000   0.00000  -0.00001
 159        3S          0.00011   0.00048   0.00006  -0.00000  -0.00052
 160        3PX         0.00006   0.00033  -0.00000   0.00003   0.00011
 161        3PY        -0.00007  -0.00009   0.00001  -0.00004   0.00003
 162        3PZ        -0.00001   0.00024  -0.00002  -0.00002   0.00020
 163        4XX        -0.00000  -0.00007  -0.00001   0.00000   0.00013
 164        4YY        -0.00001   0.00002  -0.00000  -0.00000   0.00008
 165        4ZZ        -0.00002  -0.00002  -0.00001  -0.00001   0.00011
 166        4XY        -0.00001   0.00008  -0.00001  -0.00000   0.00001
 167        4XZ         0.00001  -0.00011   0.00000   0.00000   0.00003
 168        4YZ        -0.00001   0.00006  -0.00001  -0.00000  -0.00003
 169 15  O  1S          0.00001   0.00001  -0.00004  -0.00001   0.00001
 170        2S         -0.00004   0.00003  -0.00005   0.00010   0.00008
 171        2PX         0.00006  -0.00002  -0.00002  -0.00001   0.00001
 172        2PY         0.00003   0.00000  -0.00006   0.00001   0.00001
 173        2PZ        -0.00017  -0.00000  -0.00002   0.00002   0.00003
 174        3S          0.00043  -0.00009   0.00026  -0.00053  -0.00045
 175        3PX        -0.00011   0.00007   0.00002  -0.00001  -0.00001
 176        3PY        -0.00008  -0.00001   0.00026  -0.00015  -0.00007
 177        3PZ         0.00035  -0.00003   0.00037   0.00004  -0.00017
 178        4XX         0.00002   0.00001  -0.00002   0.00009   0.00006
 179        4YY         0.00006   0.00001  -0.00001   0.00007   0.00008
 180        4ZZ        -0.00015   0.00001   0.00006   0.00010   0.00004
 181        4XY        -0.00003   0.00002  -0.00002  -0.00000  -0.00000
 182        4XZ         0.00010   0.00001  -0.00002  -0.00001  -0.00001
 183        4YZ         0.00005  -0.00000   0.00001  -0.00002  -0.00001
 184 16  C  1S         -0.00001  -0.00001   0.00001  -0.00000  -0.00001
[...]
   A38        1.92441  -0.00001   0.00010  -0.00009   0.00001   1.92442
   A39        1.85513  -0.00000  -0.00004   0.00002  -0.00002   1.85511
   A40        1.87820   0.00000  -0.00001   0.00001   0.00000   1.87820
   A41        1.99011   0.00000   0.00001   0.00000   0.00001   1.99012
   A42        1.92041  -0.00000   0.00007  -0.00004   0.00003   1.92044
   A43        1.91246   0.00000   0.00004   0.00000   0.00005   1.91251
   A44        1.85355   0.00000   0.00006   0.00000   0.00006   1.85362
    D1        1.14086   0.00003  -0.00295   0.00043  -0.00251   1.13835
    D2       -0.95708  -0.00003  -0.00379   0.00085  -0.00294  -0.96002
    D3       -3.08220  -0.00002  -0.00315   0.00056  -0.00260  -3.08480
    D4       -0.54252  -0.00002  -0.00030  -0.00021  -0.00051  -0.54303
    D5        1.32930  -0.00003  -0.00052  -0.00023  -0.00075   1.32855
    D6       -2.74900  -0.00004  -0.00019  -0.00035  -0.00055  -2.74955
    D7        1.56230   0.00000  -0.00020  -0.00018  -0.00038   1.56193
    D8       -2.84906  -0.00000  -0.00041  -0.00020  -0.00062  -2.84968
    D9       -0.64417  -0.00002  -0.00009  -0.00033  -0.00042  -0.64459
   D10       -2.60133   0.00003  -0.00025   0.00008  -0.00017  -2.60150
   D11       -0.72951   0.00003  -0.00047   0.00006  -0.00041  -0.72992
   D12        1.47538   0.00001  -0.00014  -0.00007  -0.00021   1.47517
   D13        2.90882   0.00002   0.00175  -0.00030   0.00146   2.91027
   D14        0.97611   0.00002   0.00122   0.00019   0.00141   0.97752
   D15       -1.13647   0.00001   0.00134  -0.00012   0.00122  -1.13525
   D16        0.80840   0.00002   0.00089   0.00029   0.00118   0.80958
   D17       -1.12431   0.00003   0.00036   0.00077   0.00113  -1.12318
   D18        3.04629   0.00001   0.00048   0.00046   0.00094   3.04724
   D19       -1.28061  -0.00001   0.00108  -0.00018   0.00091  -1.27970
   D20        3.06987  -0.00000   0.00055   0.00031   0.00086   3.07073
   D21        0.95729  -0.00002   0.00067  -0.00000   0.00067   0.95796
   D22        0.95831   0.00001   0.00017  -0.00018  -0.00000   0.95831
   D23       -1.15454   0.00001   0.00034  -0.00012   0.00021  -1.15433
   D24        3.11631   0.00001   0.00045  -0.00035   0.00010   3.11641
   D25        3.03145  -0.00006   0.00065  -0.00069  -0.00004   3.03141
   D26        0.91860  -0.00005   0.00081  -0.00064   0.00017   0.91878
   D27       -1.09373  -0.00005   0.00092  -0.00086   0.00006  -1.09368
   D28       -1.15302   0.00002   0.00107  -0.00067   0.00041  -1.15261
   D29        3.01732   0.00002   0.00123  -0.00061   0.00062   3.01794
   D30        1.00498   0.00002   0.00135  -0.00084   0.00051   1.00549
   D31       -2.91539   0.00004   0.00258   0.00138   0.00397  -2.91142
   D32        1.40744   0.00008   0.00233   0.00168   0.00401   1.41145
   D33       -0.73623   0.00013   0.00196   0.00178   0.00374  -0.73249
   D34        1.83145  -0.00002  -0.00110  -0.00086  -0.00196   1.82949
   D35       -2.59120  -0.00003  -0.00118  -0.00094  -0.00212  -2.59332
   D36       -0.39506  -0.00007  -0.00090  -0.00099  -0.00189  -0.39695
   D37       -0.67496   0.00006  -0.00029   0.00035   0.00006  -0.67490
   D38        1.12898   0.00001   0.00040  -0.00027   0.00013   1.12912
   D39       -2.94928  -0.00001   0.00028  -0.00026   0.00002  -2.94926
   D40       -2.59686  -0.00001  -0.00188  -0.00023  -0.00211  -2.59897
   D41        1.78551  -0.00007  -0.00189  -0.00012  -0.00201   1.78350
   D42       -0.42795   0.00003  -0.00198   0.00022  -0.00176  -0.42972
   D43       -3.02513   0.00001  -0.00028   0.00028   0.00000  -3.02513
   D44       -0.92181   0.00001  -0.00021   0.00024   0.00003  -0.92178
   D45        1.12359   0.00002  -0.00047   0.00042  -0.00005   1.12354
   D46       -0.93047  -0.00001  -0.00045   0.00014  -0.00031  -0.93078
   D47        1.17285  -0.00001  -0.00038   0.00009  -0.00029   1.17257
   D48       -3.06494  -0.00001  -0.00064   0.00028  -0.00036  -3.06530
   D49        1.11776   0.00000  -0.00065   0.00051  -0.00014   1.11762
   D50       -3.06210   0.00000  -0.00058   0.00047  -0.00011  -3.06221
   D51       -1.01671   0.00001  -0.00084   0.00065  -0.00019  -1.01689
   D52       -1.06825  -0.00001  -0.00080   0.00019  -0.00061  -1.06886
   D53        0.95443  -0.00000  -0.00089   0.00025  -0.00064   0.95379
   D54       -3.13075  -0.00000  -0.00083   0.00023  -0.00060  -3.13135
   D55        3.12125  -0.00000  -0.00085   0.00016  -0.00068   3.12056
   D56       -1.13926  -0.00000  -0.00093   0.00022  -0.00071  -1.13997
   D57        1.05874  -0.00000  -0.00088   0.00021  -0.00067   1.05807
   D58        1.08126   0.00001  -0.00062   0.00018  -0.00044   1.08082
   D59        3.10394   0.00001  -0.00071   0.00024  -0.00046   3.10347
   D60       -0.98125   0.00001  -0.00065   0.00023  -0.00042  -0.98167
   D61        3.12024  -0.00001  -0.00037  -0.00028  -0.00065   3.11960
   D62       -1.13115  -0.00001  -0.00023  -0.00030  -0.00053  -1.13167
   D63        1.03847  -0.00000  -0.00038  -0.00023  -0.00062   1.03785
   D64        3.07026   0.00000  -0.00025  -0.00025  -0.00049   3.06977
   D65       -1.01454  -0.00000  -0.00033  -0.00027  -0.00060  -1.01514
   D66        1.01726  -0.00000  -0.00020  -0.00028  -0.00048   1.01678
         Item               Value     Threshold  Converged?
 Maximum Force            0.000317     0.000450     YES
 RMS     Force            0.000046     0.000300     YES
 Maximum Displacement     0.006384     0.001800     NO 
 RMS     Displacement     0.001164     0.001200     YES
 Predicted change in Energy=-9.659847D-07
 Lowest energy point so far.  Saving SCF results.
 GradGradGradGradGradGradGradGradGradGradGradGradGradGradGradGradGradGrad

 Leave Link  103 at Thu Jan 21 18:53:26 2021, MaxMem=   536870912 cpu:              22.8 elap:               7.1
 (Enter /usr/local//g16/l202.exe)
                          Input orientation:                          
 ---------------------------------------------------------------------
 Center     Atomic      Atomic             Coordinates (Angstroms)
 Number     Number       Type             X           Y           Z
 ---------------------------------------------------------------------
      1          6           0        0.078127    0.108763   -0.451014
      2          8           0       -0.149519    0.202192   -1.843499
      3          1           0        0.574708   -0.257777   -2.295673
      4         15           0        1.635104    1.046772   -0.005963
      5         15           0        0.272441   -1.695701    0.049147
      6          8           0        2.507640    0.864201   -1.347314
      7          1           0        3.434915    1.116120   -1.223964
      8          8           0        1.310702    2.635217   -0.020759
      9          1           0        1.242669    2.975178    0.884018
     10          8           0        0.865605   -1.664245    1.534443
     11          1           0        1.533704   -0.942388    1.656609
     12          8           0        1.500306   -2.070389   -0.968509
     13          1           0        1.434768   -3.002578   -1.226485
     14          8           0       -0.903943   -2.579442   -0.109228
     15          8           0        2.274300    0.610279    1.279352
     16          6           0       -1.113495    0.767336    0.279396
     17          6           0       -2.494409    0.210256   -0.097400
     18          1           0       -1.084719    1.836237    0.039205
     19          1           0       -0.949342    0.671756    1.360707
     20          6           0       -3.616973    1.027821    0.546709
     21          1           0       -2.597865    0.243224   -1.187967
     22          1           0       -2.589078   -0.836564    0.198119
     23          1           0       -3.525068    0.976431    1.639764
     24          1           0       -3.490769    2.093532    0.274193
     25          7           0       -4.922429    0.470250    0.184939
     26          1           0       -5.664774    1.003258    0.631370
     27          1           0       -5.067978    0.565549   -0.818124
 ---------------------------------------------------------------------
                    Distance matrix (angstroms):
                    1          2          3          4          5
     1  C    0.000000
     2  O    1.414061   0.000000
     3  H    1.945177   0.969814   0.000000
     4  P    1.871392   2.697172   2.840609   0.000000
     5  P    1.882553   2.713330   2.767160   3.062849   0.000000
     6  O    2.697512   2.782975   2.427848   1.610551   3.674141
     7  H    3.588906   3.750635   3.349170   2.174318   4.419094
     8  O    2.843823   3.372571   3.753177   1.621300   4.454180
     9  H    3.369689   4.131222   4.583515   2.159820   4.843084
    10  O    2.775917   3.990559   4.090545   3.211633   1.599667
    11  H    2.768699   4.048958   4.124184   2.594452   2.177659
    12  O    2.653129   2.941455   2.429744   3.265173   1.638191
    13  H    3.481705   3.627841   3.068680   4.234034   2.164756
    14  O    2.882312   3.363680   3.515264   4.427962   1.479851
    15  O    2.840574   3.974121   4.052522   1.500377   3.292170
    16  C    1.545051   2.399025   3.245284   2.777465   2.835557
    17  C    2.598709   2.923600   3.804069   4.214380   3.362976
    18  H    2.139321   2.662569   3.548274   2.832443   3.783724
    19  H    2.157542   3.335737   4.068891   2.947505   2.969477
    20  C    3.936227   4.291619   5.225140   5.281109   4.774168
    21  H    2.778870   2.534917   3.397534   4.467757   3.678116
    22  H    2.903274   3.346441   4.069833   4.629505   2.991421
    23  H    4.255258   4.911914   5.815420   5.416710   4.908302
    24  H    4.147560   4.384716   5.353594   5.239157   5.345155
    25  N    5.053778   5.192984   6.074699   6.585594   5.629961
    26  H    5.912072   6.097928   7.006349   7.327777   6.547816
    27  H    5.179365   5.037326   5.890749   6.769231   5.863914
                    6          7          8          9         10
     6  O    0.000000
     7  H    0.968772   0.000000
     8  O    2.515731   2.875351   0.000000
     9  H    3.321930   3.564496   0.968929   0.000000
    10  O    4.170592   4.684079   4.593706   4.699944   0.000000
    11  H    3.638113   4.018676   3.957594   4.003614   0.991140
    12  O    3.125705   3.736551   4.803843   5.381076   2.613918
    13  H    4.014678   4.578676   5.766620   6.342294   3.120545
    14  O    5.003042   5.807367   5.666140   6.037241   2.582738
    15  O    2.649207   2.805262   2.592139   2.610230   2.687555
    16  C    3.970917   4.803101   3.075028   3.285064   3.377065
    17  C    5.197155   6.103001   4.512779   4.751182   4.179277
    18  H    3.971439   4.747764   2.525867   2.725368   4.277017
    19  H    4.395581   5.108786   3.297184   3.215260   2.963295
    20  C    6.412875   7.271328   5.214184   5.246150   5.321310
    21  H    5.145598   6.095711   4.728731   5.148437   4.800581
    22  H    5.590840   6.490285   5.225845   5.448130   3.795478
    23  H    6.732666   7.527405   5.375275   5.224698   5.124673
    24  H    6.334149   7.152965   4.840923   4.853310   5.889576
    25  N    7.596638   8.499844   6.601614   6.691174   6.314948
    26  H    8.409689   9.287591   7.193457   7.187842   7.111748
    27  H    7.599948   8.530359   6.753286   6.966195   6.761210
                   11         12         13         14         15
    11  H    0.000000
    12  O    2.857402   0.000000
    13  H    3.544912   0.969445   0.000000
    14  O    3.426404   2.603443   2.626190   0.000000
    15  O    1.761130   3.583005   4.476245   4.712080   0.000000
    16  C    3.439118   4.054862   4.793076   3.375776   3.535779
    17  C    4.542118   4.681658   5.199574   3.211252   4.979563
    18  H    4.146431   4.791615   5.600350   4.421870   3.784699
    19  H    2.976330   4.352630   5.087069   3.568341   3.225254
    20  C    5.625217   6.171008   6.701374   4.561045   5.951319
    21  H    5.154333   4.711260   5.176760   3.464173   5.473608
    22  H    4.374440   4.427913   4.786695   2.443720   5.187954
    23  H    5.410483   6.429665   6.974803   4.751158   5.822082
    24  H    6.031021   6.617657   7.244535   5.354939   6.037085
    25  N    6.770747   7.002629   7.380149   5.053255   7.280814
    26  H    7.526935   7.958976   8.360732   6.004143   7.975162
    27  H    7.209742   7.079064   7.428593   5.266184   7.636128
                   16         17         18         19         20
    16  C    0.000000
    17  C    1.535981   0.000000
    18  H    1.095933   2.156316   0.000000
    19  H    1.097868   2.174003   1.766553   0.000000
    20  C    2.531148   1.530829   2.706179   2.811695   0.000000
    21  H    2.152023   1.095959   2.516596   3.065454   2.159462
    22  H    2.180928   1.091845   3.071191   2.513041   2.157316
    23  H    2.776690   2.160329   3.042427   2.608652   1.098115
    24  H    2.722178   2.162763   2.431151   3.108184   1.107219
    25  N    3.821670   2.458168   4.076171   4.148307   1.464916
    26  H    4.570961   3.348309   4.692698   4.783004   2.049698
    27  H    4.108918   2.696096   4.268022   4.660659   2.044965
                   21         22         23         24         25
    21  H    0.000000
    22  H    1.757058   0.000000
    23  H    3.064860   2.498273   0.000000
    24  H    2.521673   3.066643   1.764618   0.000000
    25  N    2.709245   2.674409   2.079748   2.166255   0.000000
    26  H    3.646035   3.610063   2.365570   2.458165   1.017091
    27  H    2.518359   3.023841   2.930974   2.452648   1.018038
                   26         27
    26  H    0.000000
    27  H    1.627510   0.000000
 Stoichiometry    C4H13NO7P2
 Framework group  C1[X(C4H13NO7P2)]
 Deg. of freedom    75
 Full point group                 C1      NOp   1
 RotChk:  IX=0 Diff= 3.02D-04
 Largest Abelian subgroup         C1      NOp   1
 Largest concise Abelian subgroup C1      NOp   1
                         Standard orientation:                         
 ---------------------------------------------------------------------
 Center     Atomic      Atomic             Coordinates (Angstroms)
 Number     Number       Type             X           Y           Z
 ---------------------------------------------------------------------
      1          6           0        0.145706   -0.136484    0.379753
      2          8           0        0.001316   -0.217946    1.784062
      3          1           0        0.764745    0.222690    2.188481
      4         15           0        1.645049   -1.120702   -0.154471
      5         15           0        0.360404    1.659687   -0.141480
      6          8           0        2.603062   -0.958198    1.129927
      7          1           0        3.513458   -1.237222    0.951480
      8          8           0        1.276959   -2.699065   -0.110936
      9          1           0        1.143889   -3.040406   -1.007933
     10          8           0        0.860217    1.605419   -1.660090
     11          1           0        1.498691    0.864135   -1.818858
     12          8           0        1.658564    2.002734    0.797012
     13          1           0        1.635603    2.937413    1.053279
     14          8           0       -0.778349    2.577582    0.083623
     15          8           0        2.216410   -0.707775   -1.478921
     16          6           0       -1.106780   -0.763235   -0.272660
     17          6           0       -2.445521   -0.165124    0.184802
     18          1           0       -1.093848   -1.831588   -0.028685
     19          1           0       -1.006592   -0.676594   -1.362509
     20          6           0       -3.628352   -0.952458   -0.384808
     21          1           0       -2.482797   -0.190893    1.279823
     22          1           0       -2.528219    0.882844   -0.110241
     23          1           0       -3.602229   -0.907950   -1.481710
     24          1           0       -3.516141   -2.020307   -0.114549
     25          7           0       -4.892716   -0.356090    0.053036
     26          1           0       -5.675954   -0.869188   -0.344133
     27          1           0       -4.979134   -0.443288    1.063645
 ---------------------------------------------------------------------
 Rotational constants (GHZ):           0.7103492           0.4049443           0.3180271
 Leave Link  202 at Thu Jan 21 18:53:26 2021, MaxMem=   536870912 cpu:               0.6 elap:               0.2
 (Enter /usr/local//g16/l301.exe)
 Standard basis: 6-31G(d,p) (6D, 7F)
 Ernie: Thresh=  0.10000D-02 Tol=  0.10000D-05 Strict=F.
 There are   283 symmetry adapted cartesian basis functions of A   symmetry.
 There are   283 symmetry adapted basis functions of A   symmetry.
   283 basis functions,   531 primitive gaussians,   283 cartesian basis functions
    65 alpha electrons       65 beta electrons
       nuclear repulsion energy      1382.3714459173 Hartrees.
 IExCor=  402 DFT=T Ex+Corr=B3LYP ExCW=0 ScaHFX=  0.200000
 ScaDFX=  0.800000  0.720000  1.000000  0.810000 ScalE2=  1.000000  1.000000
 IRadAn=      5 IRanWt=     -1 IRanGd=            0 ICorTp=0 IEmpDi=  4
 NAtoms=   27 NActive=   27 NUniq=   27 SFac= 1.00D+00 NAtFMM=   60 NAOKFM=F Big=F
 Integral buffers will be    131072 words long.
 Raffenetti 2 integral format.
 Two-electron integral symmetry is turned on.
 Leave Link  301 at Thu Jan 21 18:53:27 2021, MaxMem=   536870912 cpu:               0.4 elap:               0.1
 (Enter /usr/local//g16/l302.exe)
 NPDir=0 NMtPBC=     1 NCelOv=     1 NCel=       1 NClECP=     1 NCelD=      1
         NCelK=      1 NCelE2=     1 NClLst=     1 CellRange=     0.0.
 One-electron integrals computed using PRISM.
 One-electron integral symmetry used in STVInt
 NBasis=   283 RedAO= T EigKep=  2.60D-03  NBF=   283
 NBsUse=   283 1.00D-06 EigRej= -1.00D+00 NBFU=   283
 Precomputing XC quadrature grid using
 IXCGrd= 4 IRadAn=           5 IRanWt=          -1 IRanGd=           0 AccXCQ= 0.00D+00.
 Generated NRdTot=       0 NPtTot=           0 NUsed=           0 NTot=          32
 NSgBfM=   282   282   282   282   282 MxSgAt=    27 MxSgA2=    27.
 Leave Link  302 at Thu Jan 21 18:53:30 2021, MaxMem=   536870912 cpu:              15.4 elap:               3.9
 (Enter /usr/local//g16/l303.exe)
 DipDrv:  MaxL=1.
 Leave Link  303 at Thu Jan 21 18:53:31 2021, MaxMem=   536870912 cpu:               1.2 elap:               0.3
 (Enter /usr/local//g16/l401.exe)
 Initial guess from the checkpoint file:  "/home/orison/scrgauss/Gau-32463.chk"
 B after Tr=     0.000000   -0.000000   -0.000000
         Rot=    1.000000   -0.000042   -0.000072    0.000087 Ang=  -0.01 deg.
 Guess basis will be translated and rotated to current coordinates.
 JPrj=2 DoOrth=T DoCkMO=T.
 Leave Link  401 at Thu Jan 21 18:53:32 2021, MaxMem=   536870912 cpu:               3.0 elap:               0.8
 (Enter /usr/local//g16/l502.exe)
 Integral symmetry usage will be decided dynamically.
 Closed shell SCF:
 Using DIIS extrapolation, IDIIS=  1040.
 NGot=   536870912 LenX=   536705383 LenY=   536624853
 Requested convergence on RMS density matrix=1.00D-08 within 128 cycles.
 Requested convergence on MAX density matrix=1.00D-06.
 Requested convergence on             energy=1.00D-06.
 No special actions if energy rises.
 Fock matrices will be formed incrementally for  20 cycles.

 Cycle   1  Pass 1  IDiag  1:
 FoFJK:  IHMeth= 1 ICntrl=       0 DoSepK=F KAlg= 0 I1Cent=           0 FoldK=F
 IRaf= 840000000 NMat=       1 IRICut=       1 DoRegI=T DoRafI=F ISym2E= 0 IDoP0=0 IntGTp=1.
 FoFCou: FMM=F IPFlag=           0 FMFlag=      100000 FMFlg1=           0
         NFxFlg=           0 DoJE=F BraDBF=F KetDBF=F FulRan=T
         wScrn=  0.000000 ICntrl=         0 IOpCl=  0 I1Cent=           0 NGrid=           0
         NMat0=    1 NMatS0=      1 NMatT0=    0 NMatD0=    1 NMtDS0=    0 NMtDT0=    0
 Symmetry not used in FoFCou.
