 Entering Gaussian System, Link 0=g16
 Input=alendronate_neutral_scf_g09.com
 Output=alendronate_neutral_scf_g09.log
 Initial command:
 /usr/local//g16/l1.exe "/home/orison/scrgauss/Gau-21338.inp" -scrdir="/home/orison/scrgauss/"
 Entering Link 1 = /usr/local//g16/l1.exe PID=     21340.
  
 Copyright (c) 1988,1990,1992,1993,1995,1998,2003,2009,2016,
            Gaussian, Inc.  All Rights Reserved.
  
 This is part of the Gaussian(R) 16 program.  It is based on
 the Gaussian(R) 09 system (copyright 2009, Gaussian, Inc.),
 the Gaussian(R) 03 system (copyright 2003, Gaussian, Inc.),
 the Gaussian(R) 98 system (copyright 1998, Gaussian, Inc.),
 the Gaussian(R) 94 system (copyright 1995, Gaussian, Inc.),
 the Gaussian 92(TM) system (copyright 1992, Gaussian, Inc.),
 the Gaussian 90(TM) system (copyright 1990, Gaussian, Inc.),
 the Gaussian 88(TM) system (copyright 1988, Gaussian, Inc.),
 the Gaussian 86(TM) system (copyright 1986, Carnegie Mellon
 University), and the Gaussian 82(TM) system (copyright 1983,
 Carnegie Mellon University). Gaussian is a federally registered
 trademark of Gaussian, Inc.
  
 This software contains proprietary and confidential information,
 including trade secrets, belonging to Gaussian, Inc.
  
 This software is provided under written license and may be
 used, copied, transmitted, or stored only in accord with that
 written license.
  
 The following legend is applicable only to US Government
 contracts under FAR:
  
                    RESTRICTED RIGHTS LEGEND
  
 Use, reproduction and disclosure by the US Government is
 subject to restrictions as set forth in subparagraphs (a)
 and (c) of the Commercial Computer Software - Restricted
 Rights clause in FAR 52.227-19.
  
 Gaussian, Inc.
 340 Quinnipiac St., Bldg. 40, Wallingford CT 06492
  
  
 ---------------------------------------------------------------
 Warning -- This program may not be used in any manner that
 competes with the business of Gaussian, Inc. or will provide
 assistance to any competitor of Gaussian, Inc.  The licensee
 of this program is prohibited from giving any competitor of
 Gaussian, Inc. access to this program.  By using this program,
 the user acknowledges that Gaussian, Inc. is engaged in the
 business of creating and licensing software in the field of
 computational chemistry and represents and warrants to the
 licensee that it is not a competitor of Gaussian, Inc. and that
 it will not use this program in any manner prohibited above.
 ---------------------------------------------------------------
  

 Cite this work as:
 Gaussian 16, Revision A.03,
 M. J. Frisch, G. W. Trucks, H. B. Schlegel, G. E. Scuseria, 
 M. A. Robb, J. R. Cheeseman, G. Scalmani, V. Barone, 
 G. A. Petersson, H. Nakatsuji, X. Li, M. Caricato, A. V. Marenich, 
 J. Bloino, B. G. Janesko, R. Gomperts, B. Mennucci, H. P. Hratchian, 
 J. V. Ortiz, A. F. Izmaylov, J. L. Sonnenberg, D. Williams-Young, 
 F. Ding, F. Lipparini, F. Egidi, J. Goings, B. Peng, A. Petrone, 
 T. Henderson, D. Ranasinghe, V. G. Zakrzewski, J. Gao, N. Rega, 
 G. Zheng, W. Liang, M. Hada, M. Ehara, K. Toyota, R. Fukuda, 
 J. Hasegawa, M. Ishida, T. Nakajima, Y. Honda, O. Kitao, H. Nakai, 
 T. Vreven, K. Throssell, J. A. Montgomery, Jr., J. E. Peralta, 
 F. Ogliaro, M. J. Bearpark, J. J. Heyd, E. N. Brothers, K. N. Kudin, 
 V. N. Staroverov, T. A. Keith, R. Kobayashi, J. Normand, 
 K. Raghavachari, A. P. Rendell, J. C. Burant, S. S. Iyengar, 
 J. Tomasi, M. Cossi, J. M. Millam, M. Klene, C. Adamo, R. Cammi, 
 J. W. Ochterski, R. L. Martin, K. Morokuma, O. Farkas, 
 J. B. Foresman, and D. J. Fox, Gaussian, Inc., Wallingford CT, 2016.
 
 ******************************************
 Gaussian 16:  EM64L-G16RevA.03 25-Dec-2016
                22-Jan-2021 
 ******************************************
 %nproc=8
 Will use up to    8 processors via shared memory.
 %Mem=4GB
 ----------------------------------------------------------------------
 #t B3LYP/6-31G(d,p) # Gfinput IOP(6/7=3) Pop=hirshfeld Density Test # 
 Units(Ang,Deg)
 ----------------------------------------------------------------------
 -------------------------
 alendronate-2-opt-g09.log
 -------------------------
 Symbolic Z-matrix:
 Charge =  0 Multiplicity = 1
 C                     0.12693  -0.17508   0.39297 
 O                    -0.01706  -0.2741    1.79834 
 H                     0.78612   0.06316   2.22105 
 P                     1.6333   -1.12374  -0.17389 
 P                     0.37155   1.6145   -0.12026 
 O                     2.77056  -0.77761   0.91378 
 H                     2.95167   0.18171   0.89493 
 O                     1.37689  -2.67544   0.15834 
 H                     1.44816  -3.20863  -0.64725 
 O                     0.69143   1.56244  -1.68555 
 H                     1.23106   0.76535  -1.92703 
 O                     1.82706   1.84341   0.65121 
 H                     1.9417    2.78055   0.8726 
 O                    -0.63144   2.62573   0.27432 
 O                     1.95355  -0.83495  -1.61041 
 C                    -1.13276  -0.78068  -0.2591 
 C                    -2.4575   -0.1551    0.20152 
 H                    -1.1323   -1.84899  -0.01258 
 H                    -1.03062  -0.69913  -1.34753 
 C                    -3.66029  -0.89805  -0.3855 
 H                    -2.50217  -0.19222   1.29587 
 H                    -2.5133    0.89983  -0.07955 
 H                    -3.62435  -0.84086  -1.48134 
 H                    -3.58188  -1.97165  -0.12774 
 N                    -4.90833  -0.26783   0.05135 
 H                    -5.70387  -0.744    -0.36671 
 H                    -5.01084  -0.37423   1.05859 
 
                    Distance matrix (angstroms):
                    1          2          3          4          5
     1  C    0.000000
     2  O    1.416193   0.000000
     3  H    1.957847   0.968259   0.000000
     4  P    1.868271   2.708370   2.803958   0.000000
     5  P    1.877722   2.720083   2.839059   3.015435   0.000000
     6  O    2.760990   2.967624   2.520685   1.611270   3.542129
     7  H    2.891093   3.136442   2.542097   2.141186   3.120980
     8  O    2.805219   3.224768   3.479039   1.607450   4.414965
     9  H    3.468448   4.091362   4.401142   2.145953   4.969848
    10  O    2.767288   4.001541   4.185490   3.223011   1.598489
    11  H    2.736039   4.064067   4.230557   2.608440   2.173530
    12  O    2.651685   3.033238   2.591765   3.085824   1.663152
    13  H    3.501312   3.744946   3.246212   4.053854   2.193357
    14  O    2.904090   3.333034   3.516532   4.403233   1.477927
    15  O    2.790251   3.977114   4.104824   1.499850   3.274611
    16  C    1.542325   2.394675   3.247354   2.788555   2.831804
    17  C    2.591588   2.918860   3.827167   4.220645   3.352395
    18  H    2.133566   2.646407   3.510806   2.863661   3.777423
    19  H    2.154969   3.332334   4.076321   2.941801   2.970716
    20  C    3.933413   4.293203   5.242956   5.302623   4.758045
    21  H    2.779872   2.536721   3.425497   4.486651   3.678033
    22  H    2.889554   3.337034   4.108400   4.614979   2.972334
    23  H    4.245987   4.908162   5.828996   5.425157   4.883498
    24  H    4.153802   4.393108   5.360661   5.283861   5.337615
    25  N    5.047688   5.193894   6.102779   6.601230   5.608008
    26  H    5.907539   6.103119   7.033348   7.349520   6.521809
    27  H    5.184534   5.049267   5.928522   6.798924   5.857888
                    6          7          8          9         10
     6  O    0.000000
     7  H    0.976448   0.000000
     8  O    2.472805   3.344518   0.000000
     9  H    3.177328   4.016624   0.968683   0.000000
    10  O    4.068800   3.697834   4.672196   4.941034   0.000000
    11  H    3.580641   3.356277   4.026049   4.180608   0.992404
    12  O    2.798014   2.021236   4.567886   5.229978   2.613245
    13  H    3.653657   2.788280   5.531456   6.198694   3.096950
    14  O    4.854404   4.381446   5.670030   6.262091   2.592617
    15  O    2.653739   2.882112   2.616948   2.611025   2.710364
    16  C    4.075729   4.352074   3.172178   3.564653   3.294335
    17  C    5.312951   5.463825   4.588739   5.029775   4.052991
    18  H    4.151905   4.650390   2.647313   2.984996   4.214579
    19  H    4.423647   4.654368   3.459704   3.596155   2.862588
    20  C    6.561895   6.820806   5.369177   5.612803   5.165424
    21  H    5.318868   5.481327   4.744203   5.336624   4.708161
    22  H    5.632023   5.597428   5.288925   5.735407   3.645351
    23  H    6.829017   7.066565   5.573745   5.659717   4.944038
    24  H    6.547060   6.954861   5.016629   5.205892   5.760012
    25  N    7.743966   7.917911   6.731421   7.038559   6.141988
    26  H    8.570691   8.795854   7.358213   7.569983   6.925234
    27  H    7.793194   7.983572   6.849023   7.256886   6.617921
                   11         12         13         14         15
    11  H    0.000000
    12  O    2.857403   0.000000
    13  H    3.521927   0.969736   0.000000
    14  O    3.431598   2.607354   2.646310   0.000000
    15  O    1.784152   3.507782   4.386037   4.712822   0.000000
    16  C    3.280220   4.058947   4.838947   3.484177   3.369613
    17  C    4.356998   4.749075   5.331168   3.327583   4.816913
    18  H    4.010656   4.778310   5.627225   4.511795   3.619918
    19  H    2.756033   4.315763   5.086437   3.720811   2.998804
    20  C    5.391523   6.221043   6.818886   4.693221   5.746267
    21  H    5.024045   4.827174   5.363255   3.533276   5.358452
    22  H    4.177499   4.501453   4.928562   2.577858   5.030481
    23  H    5.133572   6.439794   7.045322   4.904804   5.579396
    24  H    5.821770   6.664689   7.354864   5.477468   5.842207
    25  N    6.532500   7.083971   7.542545   5.168577   7.082970
    26  H    7.266773   8.027812   8.509588   6.123361   7.758295
    27  H    7.012409   7.200053   7.637083   5.366003   7.472520
                   16         17         18         19         20
    16  C    0.000000
    17  C    1.535727   0.000000
    18  H    1.096384   2.161309   0.000000
    19  H    1.096249   2.175204   1.764825   0.000000
    20  C    2.533409   1.530775   2.726553   2.807176   0.000000
    21  H    2.153950   1.095890   2.516639   3.067569   2.160195
    22  H    2.182256   1.093157   3.076956   2.522456   2.154429
    23  H    2.775881   2.159589   3.063314   2.601044   1.097920
    24  H    2.726509   2.161596   2.455351   3.100987   1.106890
    25  N    3.822868   2.458013   4.094210   4.144818   1.464793
    26  H    4.572524   3.347926   4.716531   4.775279   2.049464
    27  H    4.115946   2.702246   4.285487   4.662309   2.045426
                   21         22         23         24         25
    21  H    0.000000
    22  H    1.756268   0.000000
    23  H    3.064787   2.495886   0.000000
    24  H    2.521668   3.064243   1.764291   0.000000
    25  N    2.710010   2.667721   2.079929   2.166690   0.000000
    26  H    3.649591   3.600608   2.361395   2.463143   1.017053
    27  H    2.526431   3.025937   2.931099   2.449705   1.018019
                   26         27
    26  H    0.000000
    27  H    1.627421   0.000000
 Framework group  C1[X(C4H13NO7P2)]
 Deg. of freedom    75
                         Standard orientation:                         
 ---------------------------------------------------------------------
 Center     Atomic      Atomic             Coordinates (Angstroms)
 Number     Number       Type             X           Y           Z
 ---------------------------------------------------------------------
      1          6           0       -0.126930   -0.175079   -0.392969
      2          8           0        0.017060   -0.274099   -1.798339
      3          1           0       -0.786120    0.063161   -2.221049
      4         15           0       -1.633300   -1.123738    0.173891
      5         15           0       -0.371549    1.614501    0.120261
      6          8           0       -2.770560   -0.777608   -0.913779
      7          1           0       -2.951670    0.181712   -0.894929
      8          8           0       -1.376891   -2.675438   -0.158339
      9          1           0       -1.448161   -3.208628    0.647251
     10          8           0       -0.691429    1.562441    1.685551
     11          1           0       -1.231060    0.765352    1.927031
     12          8           0       -1.827059    1.843412   -0.651209
     13          1           0       -1.941699    2.780552   -0.872599
     14          8           0        0.631441    2.625731   -0.274319
     15          8           0       -1.953550   -0.834948    1.610411
     16          6           0        1.132760   -0.780679    0.259101
     17          6           0        2.457500   -0.155100   -0.201519
     18          1           0        1.132299   -1.848989    0.012581
     19          1           0        1.030620   -0.699129    1.347531
     20          6           0        3.660290   -0.898050    0.385501
     21          1           0        2.502170   -0.192220   -1.295869
     22          1           0        2.513300    0.899830    0.079551
     23          1           0        3.624350   -0.840860    1.481341
     24          1           0        3.581879   -1.971650    0.127741
     25          7           0        4.908330   -0.267831   -0.051349
     26          1           0        5.703870   -0.744001    0.366711
     27          1           0        5.010840   -0.374231   -1.058589
 ---------------------------------------------------------------------
 Rotational constants (GHZ):           0.7312008           0.4028206           0.3204638
 AO basis set in the form of general basis input (Overlap normalization):
      1 0
 S   6 1.00       0.000000000000
      0.3047524880D+04  0.1834737132D-02
      0.4573695180D+03  0.1403732281D-01
      0.1039486850D+03  0.6884262226D-01
      0.2921015530D+02  0.2321844432D+00
      0.9286662960D+01  0.4679413484D+00
      0.3163926960D+01  0.3623119853D+00
 SP   3 1.00       0.000000000000
      0.7868272350D+01 -0.1193324198D+00  0.6899906659D-01
      0.1881288540D+01 -0.1608541517D+00  0.3164239610D+00
      0.5442492580D+00  0.1143456438D+01  0.7443082909D+00
 SP   1 1.00       0.000000000000
      0.1687144782D+00  0.1000000000D+01  0.1000000000D+01
 D   1 1.00       0.000000000000
      0.8000000000D+00  0.1000000000D+01
 ****
      2 0
 S   6 1.00       0.000000000000
      0.5484671660D+04  0.1831074430D-02
      0.8252349460D+03  0.1395017220D-01
      0.1880469580D+03  0.6844507810D-01
      0.5296450000D+02  0.2327143360D+00
      0.1689757040D+02  0.4701928980D+00
      0.5799635340D+01  0.3585208530D+00
 SP   3 1.00       0.000000000000
      0.1553961625D+02 -0.1107775495D+00  0.7087426823D-01
      0.3599933586D+01 -0.1480262627D+00  0.3397528391D+00
      0.1013761750D+01  0.1130767015D+01  0.7271585773D+00
 SP   1 1.00       0.000000000000
      0.2700058226D+00  0.1000000000D+01  0.1000000000D+01
 D   1 1.00       0.000000000000
      0.8000000000D+00  0.1000000000D+01
 ****
      3 0
 S   3 1.00       0.000000000000
      0.1873113696D+02  0.3349460434D-01
      0.2825394365D+01  0.2347269535D+00
      0.6401216923D+00  0.8137573261D+00
 S   1 1.00       0.000000000000
      0.1612777588D+00  0.1000000000D+01
 P   1 1.00       0.000000000000
      0.1100000000D+01  0.1000000000D+01
 ****
      4 0
 S   6 1.00       0.000000000000
      0.1941330000D+05  0.1851598923D-02
      0.2909420000D+04  0.1420619174D-01
      0.6613640000D+03  0.6999945928D-01
      0.1857590000D+03  0.2400788603D+00
      0.5919430000D+02  0.4847617180D+00
      0.2003100000D+02  0.3351998050D+00
 SP   6 1.00       0.000000000000
      0.3394780000D+03 -0.2782170105D-02  0.4564616191D-02
      0.8101010000D+02 -0.3604990135D-01  0.3369357188D-01
      0.2587800000D+02 -0.1166310044D+00  0.1397548834D+00
      0.9452210000D+01  0.9683280364D-01  0.3393617168D+00
      0.3665660000D+01  0.6144180231D+00  0.4509206237D+00
      0.1467460000D+01  0.4037980152D+00  0.2385858009D+00
 SP   3 1.00       0.000000000000
      0.2156230000D+01 -0.2529241139D+00 -0.1776531273D-01
      0.7489970000D+00  0.3285184468D-01  0.2740581964D+00
      0.2831450000D+00  0.1081254762D+01  0.7854215630D+00
 SP   1 1.00       0.000000000000
      0.9983170000D-01  0.1000000000D+01  0.1000000000D+01
 D   1 1.00       0.000000000000
      0.5500000000D+00  0.1000000000D+01
 ****
      5 0
 S   6 1.00       0.000000000000
      0.1941330000D+05  0.1851598923D-02
      0.2909420000D+04  0.1420619174D-01
      0.6613640000D+03  0.6999945928D-01
      0.1857590000D+03  0.2400788603D+00
      0.5919430000D+02  0.4847617180D+00
      0.2003100000D+02  0.3351998050D+00
 SP   6 1.00       0.000000000000
      0.3394780000D+03 -0.2782170105D-02  0.4564616191D-02
      0.8101010000D+02 -0.3604990135D-01  0.3369357188D-01
      0.2587800000D+02 -0.1166310044D+00  0.1397548834D+00
      0.9452210000D+01  0.9683280364D-01  0.3393617168D+00
      0.3665660000D+01  0.6144180231D+00  0.4509206237D+00
      0.1467460000D+01  0.4037980152D+00  0.2385858009D+00
 SP   3 1.00       0.000000000000
      0.2156230000D+01 -0.2529241139D+00 -0.1776531273D-01
      0.7489970000D+00  0.3285184468D-01  0.2740581964D+00
      0.2831450000D+00  0.1081254762D+01  0.7854215630D+00
 SP   1 1.00       0.000000000000
      0.9983170000D-01  0.1000000000D+01  0.1000000000D+01
 D   1 1.00       0.000000000000
      0.5500000000D+00  0.1000000000D+01
 ****
      6 0
 S   6 1.00       0.000000000000
      0.5484671660D+04  0.1831074430D-02
      0.8252349460D+03  0.1395017220D-01
      0.1880469580D+03  0.6844507810D-01
      0.5296450000D+02  0.2327143360D+00
      0.1689757040D+02  0.4701928980D+00
      0.5799635340D+01  0.3585208530D+00
 SP   3 1.00       0.000000000000
      0.1553961625D+02 -0.1107775495D+00  0.7087426823D-01
      0.3599933586D+01 -0.1480262627D+00  0.3397528391D+00
      0.1013761750D+01  0.1130767015D+01  0.7271585773D+00
 SP   1 1.00       0.000000000000
      0.2700058226D+00  0.1000000000D+01  0.1000000000D+01
 D   1 1.00       0.000000000000
      0.8000000000D+00  0.1000000000D+01
 ****
      7 0
 S   3 1.00       0.000000000000
      0.1873113696D+02  0.3349460434D-01
      0.2825394365D+01  0.2347269535D+00
      0.6401216923D+00  0.8137573261D+00
 S   1 1.00       0.000000000000
      0.1612777588D+00  0.1000000000D+01
 P   1 1.00       0.000000000000
      0.1100000000D+01  0.1000000000D+01
 ****
      8 0
 S   6 1.00       0.000000000000
      0.5484671660D+04  0.1831074430D-02
      0.8252349460D+03  0.1395017220D-01
      0.1880469580D+03  0.6844507810D-01
      0.5296450000D+02  0.2327143360D+00
      0.1689757040D+02  0.4701928980D+00
      0.5799635340D+01  0.3585208530D+00
 SP   3 1.00       0.000000000000
      0.1553961625D+02 -0.1107775495D+00  0.7087426823D-01
      0.3599933586D+01 -0.1480262627D+00  0.3397528391D+00
      0.1013761750D+01  0.1130767015D+01  0.7271585773D+00
 SP   1 1.00       0.000000000000
      0.2700058226D+00  0.1000000000D+01  0.1000000000D+01
 D   1 1.00       0.000000000000
      0.8000000000D+00  0.1000000000D+01
 ****
      9 0
 S   3 1.00       0.000000000000
      0.1873113696D+02  0.3349460434D-01
      0.2825394365D+01  0.2347269535D+00
      0.6401216923D+00  0.8137573261D+00
 S   1 1.00       0.000000000000
      0.1612777588D+00  0.1000000000D+01
 P   1 1.00       0.000000000000
      0.1100000000D+01  0.1000000000D+01
 ****
     10 0
 S   6 1.00       0.000000000000
      0.5484671660D+04  0.1831074430D-02
      0.8252349460D+03  0.1395017220D-01
      0.1880469580D+03  0.6844507810D-01
      0.5296450000D+02  0.2327143360D+00
      0.1689757040D+02  0.4701928980D+00
      0.5799635340D+01  0.3585208530D+00
 SP   3 1.00       0.000000000000
      0.1553961625D+02 -0.1107775495D+00  0.7087426823D-01
      0.3599933586D+01 -0.1480262627D+00  0.3397528391D+00
      0.1013761750D+01  0.1130767015D+01  0.7271585773D+00
 SP   1 1.00       0.000000000000
      0.2700058226D+00  0.1000000000D+01  0.1000000000D+01
 D   1 1.00       0.000000000000
      0.8000000000D+00  0.1000000000D+01
 ****
     11 0
 S   3 1.00       0.000000000000
      0.1873113696D+02  0.3349460434D-01
      0.2825394365D+01  0.2347269535D+00
      0.6401216923D+00  0.8137573261D+00
 S   1 1.00       0.000000000000
      0.1612777588D+00  0.1000000000D+01
 P   1 1.00       0.000000000000
      0.1100000000D+01  0.1000000000D+01
 ****
     12 0
 S   6 1.00       0.000000000000
      0.5484671660D+04  0.1831074430D-02
      0.8252349460D+03  0.1395017220D-01
      0.1880469580D+03  0.6844507810D-01
      0.5296450000D+02  0.2327143360D+00
      0.1689757040D+02  0.4701928980D+00
      0.5799635340D+01  0.3585208530D+00
 SP   3 1.00       0.000000000000
      0.1553961625D+02 -0.1107775495D+00  0.7087426823D-01
      0.3599933586D+01 -0.1480262627D+00  0.3397528391D+00
      0.1013761750D+01  0.1130767015D+01  0.7271585773D+00
 SP   1 1.00       0.000000000000
      0.2700058226D+00  0.1000000000D+01  0.1000000000D+01
 D   1 1.00       0.000000000000
      0.8000000000D+00  0.1000000000D+01
 ****
     13 0
 S   3 1.00       0.000000000000
      0.1873113696D+02  0.3349460434D-01
      0.2825394365D+01  0.2347269535D+00
      0.6401216923D+00  0.8137573261D+00
 S   1 1.00       0.000000000000
      0.1612777588D+00  0.1000000000D+01
 P   1 1.00       0.000000000000
      0.1100000000D+01  0.1000000000D+01
 ****
     14 0
 S   6 1.00       0.000000000000
      0.5484671660D+04  0.1831074430D-02
      0.8252349460D+03  0.1395017220D-01
      0.1880469580D+03  0.6844507810D-01
      0.5296450000D+02  0.2327143360D+00
      0.1689757040D+02  0.4701928980D+00
      0.5799635340D+01  0.3585208530D+00
 SP   3 1.00       0.000000000000
      0.1553961625D+02 -0.1107775495D+00  0.7087426823D-01
      0.3599933586D+01 -0.1480262627D+00  0.3397528391D+00
      0.1013761750D+01  0.1130767015D+01  0.7271585773D+00
 SP   1 1.00       0.000000000000
      0.2700058226D+00  0.1000000000D+01  0.1000000000D+01
 D   1 1.00       0.000000000000
      0.8000000000D+00  0.1000000000D+01
 ****
     15 0
 S   6 1.00       0.000000000000
      0.5484671660D+04  0.1831074430D-02
      0.8252349460D+03  0.1395017220D-01
      0.1880469580D+03  0.6844507810D-01
      0.5296450000D+02  0.2327143360D+00
      0.1689757040D+02  0.4701928980D+00
      0.5799635340D+01  0.3585208530D+00
 SP   3 1.00       0.000000000000
      0.1553961625D+02 -0.1107775495D+00  0.7087426823D-01
      0.3599933586D+01 -0.1480262627D+00  0.3397528391D+00
      0.1013761750D+01  0.1130767015D+01  0.7271585773D+00
 SP   1 1.00       0.000000000000
      0.2700058226D+00  0.1000000000D+01  0.1000000000D+01
 D   1 1.00       0.000000000000
      0.8000000000D+00  0.1000000000D+01
 ****
     16 0
 S   6 1.00       0.000000000000
      0.3047524880D+04  0.1834737132D-02
      0.4573695180D+03  0.1403732281D-01
      0.1039486850D+03  0.6884262226D-01
      0.2921015530D+02  0.2321844432D+00
      0.9286662960D+01  0.4679413484D+00
      0.3163926960D+01  0.3623119853D+00
 SP   3 1.00       0.000000000000
      0.7868272350D+01 -0.1193324198D+00  0.6899906659D-01
      0.1881288540D+01 -0.1608541517D+00  0.3164239610D+00
      0.5442492580D+00  0.1143456438D+01  0.7443082909D+00
 SP   1 1.00       0.000000000000
      0.1687144782D+00  0.1000000000D+01  0.1000000000D+01
 D   1 1.00       0.000000000000
      0.8000000000D+00  0.1000000000D+01
 ****
     17 0
 S   6 1.00       0.000000000000
      0.3047524880D+04  0.1834737132D-02
      0.4573695180D+03  0.1403732281D-01
      0.1039486850D+03  0.6884262226D-01
      0.2921015530D+02  0.2321844432D+00
      0.9286662960D+01  0.4679413484D+00
      0.3163926960D+01  0.3623119853D+00
 SP   3 1.00       0.000000000000
      0.7868272350D+01 -0.1193324198D+00  0.6899906659D-01
      0.1881288540D+01 -0.1608541517D+00  0.3164239610D+00
      0.5442492580D+00  0.1143456438D+01  0.7443082909D+00
 SP   1 1.00       0.000000000000
      0.1687144782D+00  0.1000000000D+01  0.1000000000D+01
 D   1 1.00       0.000000000000
      0.8000000000D+00  0.1000000000D+01
 ****
     18 0
 S   3 1.00       0.000000000000
      0.1873113696D+02  0.3349460434D-01
      0.2825394365D+01  0.2347269535D+00
      0.6401216923D+00  0.8137573261D+00
 S   1 1.00       0.000000000000
      0.1612777588D+00  0.1000000000D+01
 P   1 1.00       0.000000000000
      0.1100000000D+01  0.1000000000D+01
 ****
     19 0
 S   3 1.00       0.000000000000
      0.1873113696D+02  0.3349460434D-01
      0.2825394365D+01  0.2347269535D+00
      0.6401216923D+00  0.8137573261D+00
 S   1 1.00       0.000000000000
      0.1612777588D+00  0.1000000000D+01
 P   1 1.00       0.000000000000
      0.1100000000D+01  0.1000000000D+01
 ****
     20 0
 S   6 1.00       0.000000000000
      0.3047524880D+04  0.1834737132D-02
      0.4573695180D+03  0.1403732281D-01
      0.1039486850D+03  0.6884262226D-01
      0.2921015530D+02  0.2321844432D+00
      0.9286662960D+01  0.4679413484D+00
      0.3163926960D+01  0.3623119853D+00
 SP   3 1.00       0.000000000000
      0.7868272350D+01 -0.1193324198D+00  0.6899906659D-01
      0.1881288540D+01 -0.1608541517D+00  0.3164239610D+00
      0.5442492580D+00  0.1143456438D+01  0.7443082909D+00
 SP   1 1.00       0.000000000000
      0.1687144782D+00  0.1000000000D+01  0.1000000000D+01
 D   1 1.00       0.000000000000
      0.8000000000D+00  0.1000000000D+01
 ****
     21 0
 S   3 1.00       0.000000000000
      0.1873113696D+02  0.3349460434D-01
      0.2825394365D+01  0.2347269535D+00
      0.6401216923D+00  0.8137573261D+00
 S   1 1.00       0.000000000000
      0.1612777588D+00  0.1000000000D+01
 P   1 1.00       0.000000000000
      0.1100000000D+01  0.1000000000D+01
 ****
     22 0
 S   3 1.00       0.000000000000
      0.1873113696D+02  0.3349460434D-01
      0.2825394365D+01  0.2347269535D+00
      0.6401216923D+00  0.8137573261D+00
 S   1 1.00       0.000000000000
      0.1612777588D+00  0.1000000000D+01
 P   1 1.00       0.000000000000
      0.1100000000D+01  0.1000000000D+01
 ****
     23 0
 S   3 1.00       0.000000000000
      0.1873113696D+02  0.3349460434D-01
      0.2825394365D+01  0.2347269535D+00
      0.6401216923D+00  0.8137573261D+00
 S   1 1.00       0.000000000000
      0.1612777588D+00  0.1000000000D+01
 P   1 1.00       0.000000000000
      0.1100000000D+01  0.1000000000D+01
 ****
     24 0
 S   3 1.00       0.000000000000
      0.1873113696D+02  0.3349460434D-01
      0.2825394365D+01  0.2347269535D+00
      0.6401216923D+00  0.8137573261D+00
 S   1 1.00       0.000000000000
      0.1612777588D+00  0.1000000000D+01
 P   1 1.00       0.000000000000
      0.1100000000D+01  0.1000000000D+01
 ****
     25 0
 S   6 1.00       0.000000000000
      0.4173511460D+04  0.1834772160D-02
      0.6274579110D+03  0.1399462700D-01
      0.1429020930D+03  0.6858655181D-01
      0.4023432930D+02  0.2322408730D+00
      0.1282021290D+02  0.4690699481D+00
      0.4390437010D+01  0.3604551991D+00
 SP   3 1.00       0.000000000000
      0.1162636186D+02 -0.1149611817D+00  0.6757974388D-01
      0.2716279807D+01 -0.1691174786D+00  0.3239072959D+00
      0.7722183966D+00  0.1145851947D+01  0.7408951398D+00
 SP   1 1.00       0.000000000000
      0.2120314975D+00  0.1000000000D+01  0.1000000000D+01
 D   1 1.00       0.000000000000
      0.8000000000D+00  0.1000000000D+01
 ****
     26 0
 S   3 1.00       0.000000000000
      0.1873113696D+02  0.3349460434D-01
      0.2825394365D+01  0.2347269535D+00
      0.6401216923D+00  0.8137573261D+00
 S   1 1.00       0.000000000000
      0.1612777588D+00  0.1000000000D+01
 P   1 1.00       0.000000000000
      0.1100000000D+01  0.1000000000D+01
 ****
     27 0
 S   3 1.00       0.000000000000
      0.1873113696D+02  0.3349460434D-01
      0.2825394365D+01  0.2347269535D+00
      0.6401216923D+00  0.8137573261D+00
 S   1 1.00       0.000000000000
      0.1612777588D+00  0.1000000000D+01
 P   1 1.00       0.000000000000
      0.1100000000D+01  0.1000000000D+01
 ****

   283 basis functions,   531 primitive gaussians,   283 cartesian basis functions
    65 alpha electrons       65 beta electrons
       nuclear repulsion energy      1388.1218734604 Hartrees.
 NAtoms=   27 NActive=   27 NUniq=   27 SFac= 1.00D+00 NAtFMM=   60 NAOKFM=F Big=F
 ExpMin= 9.98D-02 ExpMax= 1.94D+04 ExpMxC= 2.91D+03 IAcc=3 IRadAn=         5 AccDes= 0.00D+00
 Harris functional with IExCor=  402 and IRadAn=       5 diagonalized for initial guess.
 HarFok:  IExCor=  402 AccDes= 0.00D+00 IRadAn=         5 IDoV= 1 UseB2=F ITyADJ=14
 ICtDFT=  3500011 ScaDFX=  1.000000  1.000000  1.000000  1.000000
 FoFCou: FMM=F IPFlag=           0 FMFlag=      100000 FMFlg1=           0
         NFxFlg=           0 DoJE=T BraDBF=F KetDBF=T FulRan=T
         wScrn=  0.000000 ICntrl=       500 IOpCl=  0 I1Cent=   200000004 NGrid=           0
         NMat0=    1 NMatS0=      1 NMatT0=    0 NMatD0=    1 NMtDS0=    0 NMtDT0=    0
 Petite list used in FoFCou.
 Integral accuracy reduced to 1.0D-05 until final iterations.
 Initial convergence to 1.0D-05 achieved.  Increase integral accuracy.
 SCF Done:  E(RB3LYP) =  -1424.43392917     A.U. after   14 cycles
            NFock= 14  Conv=0.52D-08     -V/T= 2.0065

 **********************************************************************

            Population analysis using the SCF density.

 **********************************************************************

 Orbital symmetries:
       Occupied  (A) (A) (A) (A) (A) (A) (A) (A) (A) (A) (A) (A)
                 (A) (A) (A) (A) (A) (A) (A) (A) (A) (A) (A) (A)
                 (A) (A) (A) (A) (A) (A) (A) (A) (A) (A) (A) (A)
                 (A) (A) (A) (A) (A) (A) (A) (A) (A) (A) (A) (A)
                 (A) (A) (A) (A) (A) (A) (A) (A) (A) (A) (A) (A)
                 (A) (A) (A) (A) (A)
       Virtual   (A) (A) (A) (A) (A) (A) (A) (A) (A) (A) (A) (A)
                 (A) (A) (A) (A) (A) (A) (A) (A) (A) (A) (A) (A)
                 (A) (A) (A) (A) (A) (A) (A) (A) (A) (A) (A) (A)
                 (A) (A) (A) (A) (A) (A) (A) (A) (A) (A) (A) (A)
                 (A) (A) (A) (A) (A) (A) (A) (A) (A) (A) (A) (A)
                 (A) (A) (A) (A) (A) (A) (A) (A) (A) (A) (A) (A)
                 (A) (A) (A) (A) (A) (A) (A) (A) (A) (A) (A) (A)
                 (A) (A) (A) (A) (A) (A) (A) (A) (A) (A) (A) (A)
                 (A) (A) (A) (A) (A) (A) (A) (A) (A) (A) (A) (A)
                 (A) (A) (A) (A) (A) (A) (A) (A) (A) (A) (A) (A)
                 (A) (A) (A) (A) (A) (A) (A) (A) (A) (A) (A) (A)
                 (A) (A) (A) (A) (A) (A) (A) (A) (A) (A) (A) (A)
                 (A) (A) (A) (A) (A) (A) (A) (A) (A) (A) (A) (A)
                 (A) (A) (A) (A) (A) (A) (A) (A) (A) (A) (A) (A)
                 (A) (A) (A) (A) (A) (A) (A) (A) (A) (A) (A) (A)
                 (A) (A) (A) (A) (A) (A) (A) (A) (A) (A) (A) (A)
                 (A) (A) (A) (A) (A) (A) (A) (A) (A) (A) (A) (A)
                 (A) (A) (A) (A) (A) (A) (A) (A) (A) (A) (A) (A)
                 (A) (A)
 The electronic state is 1-A.
 Alpha  occ. eigenvalues --  -77.24805 -77.22984 -19.21594 -19.21141 -19.20736
 Alpha  occ. eigenvalues --  -19.18573 -19.18329 -19.14683 -19.12193 -14.30824
 Alpha  occ. eigenvalues --  -10.28561 -10.20949 -10.20668 -10.17859  -6.69780
 Alpha  occ. eigenvalues --   -6.67978  -4.86213  -4.86097  -4.85872  -4.84437
 Alpha  occ. eigenvalues --   -4.84262  -4.84070  -1.10959  -1.08817  -1.06123
 Alpha  occ. eigenvalues --   -1.05607  -1.04254  -0.99422  -0.97129  -0.87615
 Alpha  occ. eigenvalues --   -0.80608  -0.73297  -0.66891  -0.65964  -0.61093
 Alpha  occ. eigenvalues --   -0.58992  -0.57674  -0.55665  -0.55217  -0.52392
 Alpha  occ. eigenvalues --   -0.49021  -0.47982  -0.47284  -0.46508  -0.45459
 Alpha  occ. eigenvalues --   -0.44780  -0.43404  -0.41947  -0.41101  -0.40916
 Alpha  occ. eigenvalues --   -0.38904  -0.38595  -0.38252  -0.38124  -0.36681
 Alpha  occ. eigenvalues --   -0.35465  -0.35361  -0.34375  -0.33789  -0.32988
 Alpha  occ. eigenvalues --   -0.32590  -0.30649  -0.30243  -0.27584  -0.23031
 Alpha virt. eigenvalues --    0.00636   0.02376   0.04732   0.06016   0.07586
 Alpha virt. eigenvalues --    0.08432   0.09978   0.10511   0.10583   0.11621
 Alpha virt. eigenvalues --    0.12487   0.13050   0.14031   0.14519   0.15527
 Alpha virt. eigenvalues --    0.16445   0.17849   0.18879   0.19275   0.20777
 Alpha virt. eigenvalues --    0.21175   0.23668   0.24448   0.25250   0.26533
 Alpha virt. eigenvalues --    0.28890   0.30100   0.32538   0.36615   0.37811
 Alpha virt. eigenvalues --    0.39800   0.40383   0.41501   0.45119   0.49131
 Alpha virt. eigenvalues --    0.51860   0.53297   0.55330   0.55762   0.57989
 Alpha virt. eigenvalues --    0.59995   0.60452   0.64914   0.67049   0.68240
 Alpha virt. eigenvalues --    0.70518   0.72364   0.72414   0.73051   0.73631
 Alpha virt. eigenvalues --    0.75303   0.77407   0.78064   0.79088   0.80310
 Alpha virt. eigenvalues --    0.80986   0.82695   0.84219   0.85181   0.86095
 Alpha virt. eigenvalues --    0.86383   0.87560   0.88142   0.88234   0.90307
 Alpha virt. eigenvalues --    0.90368   0.92405   0.93291   0.94212   0.95591
 Alpha virt. eigenvalues --    0.96246   0.97252   0.97501   0.97928   1.00235
 Alpha virt. eigenvalues --    1.00730   1.01832   1.02990   1.04389   1.04512
 Alpha virt. eigenvalues --    1.05348   1.06250   1.09721   1.11151   1.13821
 Alpha virt. eigenvalues --    1.16701   1.17030   1.18563   1.19461   1.20250
 Alpha virt. eigenvalues --    1.20646   1.25100   1.26485   1.28498   1.30400
 Alpha virt. eigenvalues --    1.32129   1.34347   1.36975   1.40418   1.42583
 Alpha virt. eigenvalues --    1.42996   1.46721   1.51336   1.52010   1.53169
 Alpha virt. eigenvalues --    1.55655   1.56413   1.57170   1.58473   1.59464
 Alpha virt. eigenvalues --    1.60558   1.63866   1.65433   1.66532   1.69267
 Alpha virt. eigenvalues --    1.70664   1.71950   1.73804   1.74520   1.76321
 Alpha virt. eigenvalues --    1.77842   1.80393   1.81351   1.83148   1.84327
 Alpha virt. eigenvalues --    1.85027   1.85635   1.86481   1.87985   1.88414
 Alpha virt. eigenvalues --    1.89873   1.92291   1.94953   1.97566   2.01919
 Alpha virt. eigenvalues --    2.02826   2.05198   2.05998   2.07270   2.09271
 Alpha virt. eigenvalues --    2.09751   2.12560   2.14000   2.15264   2.17799
 Alpha virt. eigenvalues --    2.17944   2.22455   2.24539   2.24698   2.27750
 Alpha virt. eigenvalues --    2.29367   2.29691   2.31599   2.31872   2.37267
 Alpha virt. eigenvalues --    2.37720   2.38979   2.41501   2.42688   2.44512
 Alpha virt. eigenvalues --    2.46598   2.47551   2.49936   2.51150   2.56080
 Alpha virt. eigenvalues --    2.56641   2.58661   2.60389   2.60770   2.61631
 Alpha virt. eigenvalues --    2.61942   2.62716   2.65305   2.65511   2.66177
 Alpha virt. eigenvalues --    2.66807   2.70781   2.73934   2.75227   2.76594
 Alpha virt. eigenvalues --    2.77797   2.82159   2.83575   2.85033   2.86817
 Alpha virt. eigenvalues --    2.88625   2.90267   2.93613   2.95498   2.97493
 Alpha virt. eigenvalues --    3.04067   3.24103   3.28451   3.29951   3.31638
 Alpha virt. eigenvalues --    3.33143   3.35586   3.37793   3.39163   3.43818
 Alpha virt. eigenvalues --    3.44815   3.48053   3.51212   3.53985   3.54272
 Alpha virt. eigenvalues --    3.58314   3.79228   3.92563   4.00845   4.01140
 Alpha virt. eigenvalues --    4.04365   4.09394   4.18940   4.27513   4.31469
 Alpha virt. eigenvalues --    4.41819   4.55912   4.72766
     Molecular Orbital Coefficients:
                           1         2         3         4         5
                           O         O         O         O         O
     Eigenvalues --   -77.24805 -77.22984 -19.21594 -19.21141 -19.20736
   1 1   C  1S         -0.00003  -0.00003  -0.00002  -0.00003  -0.00002
   2        2S         -0.00001  -0.00001  -0.00015  -0.00016  -0.00016
   3        2PX        -0.00002  -0.00002   0.00001  -0.00010  -0.00002
   4        2PY        -0.00003   0.00004  -0.00004   0.00004   0.00007
   5        2PZ         0.00000   0.00000   0.00007  -0.00004   0.00001
   6        3S          0.00083   0.00068   0.00083   0.00143   0.00109
   7        3PX        -0.00021   0.00007  -0.00063   0.00046   0.00012
   8        3PY        -0.00042   0.00047   0.00002   0.00042  -0.00095
   9        3PZ         0.00002  -0.00006  -0.00007   0.00118  -0.00041
  10        4XX        -0.00010  -0.00008   0.00000   0.00001   0.00003
  11        4YY        -0.00009  -0.00014   0.00002   0.00001  -0.00002
  12        4ZZ        -0.00006  -0.00005  -0.00004  -0.00007   0.00003
  13        4XY        -0.00004   0.00000   0.00005  -0.00004   0.00001
  14        4XZ         0.00003  -0.00000  -0.00001   0.00001  -0.00000
  15        4YZ         0.00002  -0.00003  -0.00001   0.00002  -0.00002
  16 2   O  1S          0.00000   0.00001  -0.00001  -0.00003   0.00000
  17        2S          0.00001   0.00003  -0.00017  -0.00025   0.00002
  18        2PX         0.00001   0.00001   0.00005   0.00001   0.00001
  19        2PY        -0.00000  -0.00000   0.00005  -0.00002   0.00003
  20        2PZ        -0.00001  -0.00001  -0.00004  -0.00002   0.00001
  21        3S         -0.00020  -0.00028   0.00055   0.00128  -0.00027
  22        3PX         0.00000  -0.00006  -0.00011  -0.00021  -0.00014
  23        3PY         0.00009  -0.00009  -0.00025   0.00015  -0.00006
  24        3PZ        -0.00014  -0.00016   0.00020   0.00025  -0.00026
  25        4XX         0.00003  -0.00000  -0.00013  -0.00014   0.00004
  26        4YY        -0.00002   0.00002  -0.00013  -0.00014   0.00001
  27        4ZZ        -0.00001  -0.00000  -0.00012  -0.00013  -0.00005
  28        4XY         0.00001  -0.00002   0.00005  -0.00004   0.00002
  29        4XZ         0.00001  -0.00001  -0.00002  -0.00003   0.00000
  30        4YZ         0.00001  -0.00001  -0.00003   0.00001   0.00001
  31 3   H  1S         -0.00002  -0.00001  -0.00006  -0.00002   0.00001
  32        2S         -0.00018  -0.00018   0.00030  -0.00012  -0.00010
  33        3PX         0.00001  -0.00000   0.00003  -0.00003  -0.00002
  34        3PY         0.00001  -0.00002  -0.00001   0.00001   0.00002
  35        3PZ        -0.00004  -0.00004   0.00002  -0.00001  -0.00000
  36 4   P  1S          0.99625   0.00011   0.00001  -0.00000   0.00001
  37        2S          0.01418  -0.00001  -0.00002  -0.00003  -0.00002
  38        2PX         0.00000   0.00001  -0.00002   0.00001   0.00005
  39        2PY        -0.00001   0.00000   0.00006  -0.00001  -0.00001
  40        2PZ        -0.00003  -0.00000   0.00003   0.00003   0.00005
  41        3S         -0.02724   0.00003   0.00024  -0.00028   0.00027
  42        3PX        -0.00013  -0.00009   0.00013  -0.00005  -0.00011
  43        3PY        -0.00008  -0.00005  -0.00012   0.00008   0.00007
  44        3PZ         0.00006   0.00003  -0.00015  -0.00022  -0.00018
  45        4S          0.00286   0.00019  -0.00269   0.00075  -0.00290
  46        4PX         0.00018   0.00009  -0.00072   0.00003   0.00068
  47        4PY         0.00023  -0.00004   0.00131   0.00026  -0.00010
  48        4PZ         0.00011  -0.00004   0.00175  -0.00015   0.00176
  49        5XX         0.00944  -0.00003  -0.00004  -0.00000   0.00009
  50        5YY         0.00944  -0.00006   0.00026   0.00012  -0.00004
  51        5ZZ         0.00950  -0.00001  -0.00007   0.00005   0.00008
  52        5XY        -0.00002  -0.00003  -0.00007   0.00000  -0.00005
  53        5XZ         0.00000   0.00001  -0.00005   0.00001   0.00023
  54        5YZ         0.00003   0.00002   0.00008  -0.00004  -0.00010
  55 5   P  1S         -0.00011   0.99625   0.00000   0.00001  -0.00000
  56        2S         -0.00003   0.01417   0.00003   0.00003  -0.00004
  57        2PX         0.00000  -0.00003  -0.00000   0.00006   0.00001
  58        2PY        -0.00001  -0.00002  -0.00000   0.00001   0.00000
  59        2PZ        -0.00001   0.00000  -0.00000   0.00004   0.00000
  60        3S         -0.00001  -0.02724   0.00016   0.00025  -0.00021
  61        3PX        -0.00001  -0.00002   0.00001  -0.00009  -0.00003
  62        3PY         0.00010   0.00014  -0.00000  -0.00017   0.00000
  63        3PZ         0.00005   0.00007   0.00001  -0.00011   0.00001
  64        4S          0.00030   0.00300  -0.00075  -0.00352   0.00130
  65        4PX        -0.00007   0.00000   0.00046   0.00177  -0.00047
  66        4PY        -0.00018  -0.00029   0.00042   0.00168  -0.00063
  67        4PZ         0.00003   0.00002  -0.00001   0.00015   0.00002
  68        5XX        -0.00003   0.00946   0.00002   0.00026   0.00002
  69        5YY        -0.00010   0.00940   0.00000   0.00004   0.00002
  70        5ZZ        -0.00002   0.00947   0.00000   0.00004   0.00002
  71        5XY        -0.00002   0.00001  -0.00002  -0.00007  -0.00001
  72        5XZ        -0.00001   0.00000  -0.00001   0.00019   0.00002
  73        5YZ        -0.00001  -0.00001  -0.00001   0.00000  -0.00001
  74 6   O  1S         -0.00001   0.00001   0.00018  -0.00018   0.99269
  75        2S         -0.00006   0.00006  -0.00021  -0.00012   0.02576
  76        2PX        -0.00006   0.00002  -0.00001   0.00005   0.00033
  77        2PY         0.00000   0.00001  -0.00002  -0.00004   0.00073
  78        2PZ        -0.00007   0.00001   0.00005   0.00002   0.00049
  79        3S          0.00082  -0.00024   0.00137   0.00056   0.01287
  80        3PX         0.00022  -0.00010   0.00031  -0.00017   0.00033
  81        3PY        -0.00001  -0.00003  -0.00015   0.00035  -0.00014
  82        3PZ         0.00026  -0.00005  -0.00010  -0.00011   0.00014
  83        4XX        -0.00016   0.00004  -0.00012  -0.00009  -0.00825
  84        4YY        -0.00001   0.00004  -0.00027  -0.00002  -0.00819
  85        4ZZ        -0.00014   0.00006  -0.00016  -0.00007  -0.00827
  86        4XY         0.00003  -0.00001   0.00006   0.00004  -0.00000
  87        4XZ        -0.00014  -0.00002  -0.00002  -0.00003  -0.00005
  88        4YZ         0.00003  -0.00000   0.00001   0.00000   0.00001
  89 7   H  1S         -0.00006   0.00002   0.00007  -0.00006   0.00035
  90        2S         -0.00019  -0.00003  -0.00008  -0.00096  -0.00123
  91        3PX         0.00002  -0.00001  -0.00001  -0.00016  -0.00007
  92        3PY        -0.00001  -0.00000  -0.00005  -0.00011   0.00011
  93        3PZ         0.00001  -0.00001  -0.00001  -0.00001  -0.00001
  94 8   O  1S         -0.00002   0.00000   0.99270  -0.00005  -0.00029
  95        2S         -0.00009   0.00001   0.02579   0.00000  -0.00019
  96        2PX         0.00003  -0.00000  -0.00019  -0.00000  -0.00000
  97        2PY        -0.00008  -0.00000   0.00017  -0.00001   0.00002
  98        2PZ        -0.00005  -0.00000   0.00097  -0.00000   0.00003
  99        3S          0.00093  -0.00007   0.01265  -0.00003   0.00117
 100        3PX        -0.00013   0.00001   0.00005   0.00002  -0.00007
 101        3PY         0.00026  -0.00001   0.00058  -0.00000   0.00022
 102        3PZ         0.00025   0.00000  -0.00035   0.00000  -0.00018
 103        4XX        -0.00006   0.00000  -0.00821  -0.00000  -0.00015
 104        4YY        -0.00026   0.00001  -0.00825  -0.00001  -0.00014
 105        4ZZ        -0.00001  -0.00000  -0.00823  -0.00001  -0.00014
 106        4XY         0.00004   0.00000   0.00002   0.00001   0.00006
 107        4XZ         0.00000  -0.00000   0.00001   0.00000  -0.00006
 108        4YZ        -0.00010   0.00000  -0.00003   0.00001   0.00003
 109 9   H  1S         -0.00011   0.00001   0.00041   0.00001   0.00001
 110        2S         -0.00021  -0.00002  -0.00089   0.00002   0.00002
 111        3PX        -0.00000  -0.00000   0.00000  -0.00000   0.00001
 112        3PY         0.00000  -0.00000  -0.00008   0.00001   0.00001
 113        3PZ         0.00002  -0.00000   0.00004  -0.00001  -0.00003
 114 10  O  1S          0.00001   0.00000  -0.00000  -0.00008   0.00000
 115        2S          0.00007  -0.00001  -0.00007  -0.00021   0.00014
 116        2PX         0.00000  -0.00001   0.00001   0.00002  -0.00001
 117        2PY        -0.00001   0.00000  -0.00000   0.00002  -0.00001
 118        2PZ        -0.00002   0.00010   0.00000   0.00001  -0.00002
 119        3S         -0.00025   0.00054   0.00042   0.00121  -0.00069
 120        3PX        -0.00000  -0.00001  -0.00009  -0.00014   0.00006
 121        3PY         0.00006  -0.00003  -0.00005  -0.00017   0.00008
 122        3PZ         0.00013  -0.00030  -0.00005  -0.00039   0.00017
 123        4XX         0.00005   0.00001  -0.00004  -0.00013   0.00010
 124        4YY         0.00003   0.00004  -0.00004  -0.00008   0.00009
 125        4ZZ         0.00003  -0.00023  -0.00005  -0.00008   0.00009
 126        4XY        -0.00001   0.00002   0.00000   0.00000  -0.00000
 127        4XZ        -0.00001   0.00005   0.00001  -0.00001  -0.00001
 128        4YZ        -0.00002  -0.00001  -0.00000   0.00002  -0.00001
 129 11  H  1S          0.00001  -0.00004  -0.00002  -0.00009   0.00003
 130        2S         -0.00019  -0.00020  -0.00017   0.00032  -0.00008
 131        3PX         0.00000   0.00000  -0.00001  -0.00002  -0.00000
 132        3PY         0.00001  -0.00000  -0.00002   0.00000   0.00000
 133        3PZ         0.00001  -0.00000   0.00001  -0.00005   0.00000
 134 12  O  1S          0.00001  -0.00001   0.00003   0.99266   0.00017
 135        2S          0.00006  -0.00002  -0.00009   0.02565   0.00004
 136        2PX         0.00001  -0.00005   0.00000   0.00039   0.00004
 137        2PY        -0.00000  -0.00002  -0.00000   0.00082   0.00001
 138        2PZ         0.00000  -0.00002  -0.00001   0.00005   0.00002
 139        3S         -0.00028   0.00066   0.00048   0.01319  -0.00027
 140        3PX        -0.00004   0.00028   0.00005   0.00027  -0.00027
 141        3PY         0.00006   0.00020  -0.00003  -0.00082  -0.00012
 142        3PZ        -0.00005   0.00012   0.00007   0.00036  -0.00014
 143        4XX         0.00004  -0.00020  -0.00006  -0.00839   0.00003
 144        4YY         0.00000   0.00004  -0.00004  -0.00841   0.00005
 145        4ZZ         0.00003  -0.00008  -0.00005  -0.00835   0.00000
 146        4XY         0.00001   0.00004  -0.00000   0.00001   0.00002
 147        4XZ         0.00000  -0.00010   0.00001  -0.00001  -0.00001
 148        4YZ         0.00001  -0.00000  -0.00000   0.00002   0.00000
 149 13  H  1S          0.00001  -0.00012  -0.00003   0.00052   0.00001
 150        2S          0.00001  -0.00020   0.00003  -0.00095  -0.00001
 151        3PX         0.00000   0.00001   0.00000  -0.00003   0.00003
 152        3PY        -0.00001   0.00002   0.00000   0.00000   0.00001
 153        3PZ         0.00001   0.00000  -0.00000  -0.00002   0.00001
 154 14  O  1S         -0.00000   0.00000   0.00000  -0.00001  -0.00000
 155        2S         -0.00001  -0.00008   0.00004   0.00012  -0.00002
 156        2PX         0.00000   0.00014   0.00001  -0.00000  -0.00000
 157        2PY        -0.00000   0.00013   0.00001   0.00002  -0.00001
 158        2PZ         0.00000  -0.00006   0.00001   0.00004  -0.00001
 159        3S          0.00006   0.00064  -0.00023  -0.00058   0.00015
 160        3PX        -0.00001  -0.00032  -0.00002  -0.00013   0.00002
 161        3PY         0.00001  -0.00025  -0.00003  -0.00016   0.00006
 162        3PZ         0.00000   0.00013  -0.00004  -0.00014   0.00003
 163        4XX        -0.00001  -0.00006   0.00003   0.00011  -0.00003
 164        4YY        -0.00001  -0.00008   0.00003   0.00014  -0.00002
 165        4ZZ        -0.00001   0.00001   0.00003   0.00010  -0.00002
 166        4XY         0.00001  -0.00013   0.00000   0.00003  -0.00000
 167        4XZ        -0.00000   0.00005   0.00000  -0.00002  -0.00000
 168        4YZ        -0.00000   0.00005   0.00000   0.00002  -0.00000
 169 15  O  1S          0.00001   0.00001  -0.00001  -0.00001  -0.00002
 170        2S         -0.00003   0.00005   0.00010  -0.00007   0.00004
 171        2PX        -0.00003   0.00001  -0.00002   0.00000   0.00004
 172        2PY         0.00003   0.00000   0.00002  -0.00003  -0.00001
 173        2PZ         0.00017  -0.00001  -0.00002   0.00003  -0.00000
 174        3S          0.00040  -0.00017  -0.00054   0.00024  -0.00017
 175        3PX         0.00004  -0.00005   0.00013   0.00002  -0.00021
 176        3PY        -0.00009  -0.00001  -0.00015   0.00008   0.00002
 177        3PZ        -0.00034   0.00009  -0.00005  -0.00015  -0.00022
 178        4XX         0.00005   0.00002   0.00010  -0.00008   0.00002
 179        4YY         0.00007   0.00002   0.00008  -0.00004   0.00006
 180        4ZZ        -0.00018   0.00001   0.00011  -0.00002   0.00010
 181        4XY         0.00002  -0.00001   0.00001   0.00000   0.00002
 182        4XZ         0.00007   0.00001  -0.00002  -0.00002   0.00001
 183        4YZ        -0.00004   0.00001   0.00003  -0.00002   0.00001
 184 16  C  1S         -0.00001  -0.00002  -0.00002   0.00001   0.00002
 185        2S          0.00000  -0.00005  -0.00010   0.00008   0.00008
 186        2PX         0.00003   0.00003  -0.00001   0.00001  -0.00003
 187        2PY         0.00001  -0.00004  -0.00001  -0.00002  -0.00001
 188        2PZ         0.00000   0.00002  -0.00003   0.00002   0.00002
 189        3S         -0.00020   0.00034   0.00060  -0.00082  -0.00056
 190        3PX         0.00012   0.00018  -0.00023   0.00051   0.00056
 191        3PY        -0.00019   0.00003  -0.00006  -0.00021   0.00010
 192        3PZ         0.00021  -0.00004   0.00001  -0.00012   0.00032
 193        4XX        -0.00005  -0.00004   0.00001  -0.00002   0.00000
 194        4YY        -0.00000  -0.00007   0.00001  -0.00000   0.00003
 195        4ZZ        -0.00002  -0.00004  -0.00002   0.00001   0.00001
 196        4XY         0.00001   0.00002   0.00001   0.00003   0.00001
 197        4XZ        -0.00001  -0.00000   0.00001  -0.00000  -0.00004
 198        4YZ        -0.00001   0.00001   0.00000   0.00001  -0.00000
 199 17  C  1S         -0.00001   0.00001  -0.00000  -0.00000   0.00000
 200        2S         -0.00004   0.00007  -0.00000  -0.00001   0.00002
 201        2PX         0.00002  -0.00002   0.00001  -0.00001   0.00001
 202        2PY         0.00000   0.00000  -0.00000  -0.00001   0.00000
 203        2PZ         0.00000  -0.00002   0.00001  -0.00001   0.00000
 204        3S          0.00023  -0.00027   0.00002   0.00012  -0.00021
 205        3PX        -0.00019   0.00035  -0.00009   0.00011  -0.00001
 206        3PY        -0.00003   0.00002   0.00005   0.00014   0.00000
 207        3PZ        -0.00002   0.00007  -0.00006   0.00014  -0.00013
 208        4XX        -0.00000  -0.00001  -0.00001  -0.00000  -0.00000
 209        4YY        -0.00002   0.00001  -0.00000   0.00001   0.00000
 210        4ZZ        -0.00002   0.00001  -0.00000  -0.00001   0.00000
 211        4XY         0.00001   0.00001  -0.00000  -0.00001  -0.00000
 212        4XZ        -0.00000   0.00000   0.00000   0.00000   0.00001
 213        4YZ         0.00000   0.00000   0.00000   0.00000   0.00001
 214 18  H  1S          0.00000  -0.00001   0.00003   0.00001   0.00004
 215        2S         -0.00025   0.00001  -0.00012   0.00005   0.00014
 216        3PX         0.00004  -0.00001  -0.00002  -0.00003  -0.00002
 217        3PY        -0.00002   0.00001  -0.00003   0.00001  -0.00000
 218        3PZ        -0.00001   0.00001  -0.00002   0.00000  -0.00000
 219 19  H  1S          0.00001   0.00001  -0.00005   0.00005   0.00005
 220        2S         -0.00025  -0.00019  -0.00001   0.00021  -0.00027
 221        3PX         0.00004   0.00001   0.00000  -0.00001  -0.00001
 222        3PY         0.00001  -0.00004   0.00000   0.00001  -0.00001
 223        3PZ         0.00002   0.00001  -0.00001  -0.00001   0.00001
 224 20  C  1S          0.00000   0.00000  -0.00000   0.00000   0.00000
 225        2S          0.00002   0.00001  -0.00001   0.00002   0.00000
 226        2PX        -0.00000   0.00000  -0.00000  -0.00001  -0.00001
 227        2PY        -0.00000  -0.00000  -0.00000  -0.00001  -0.00000
 228        2PZ         0.00000   0.00000  -0.00000   0.00000  -0.00000
 229        3S         -0.00009  -0.00013   0.00010  -0.00005   0.00010
 230        3PX         0.00002   0.00006  -0.00003   0.00018   0.00010
 231        3PY         0.00006  -0.00003   0.00007  -0.00001   0.00009
 232        3PZ        -0.00002  -0.00001  -0.00001  -0.00005  -0.00003
 233        4XX         0.00000   0.00000   0.00000   0.00001   0.00001
 234        4YY         0.00001   0.00000  -0.00000   0.00000   0.00001
 235        4ZZ         0.00000   0.00000  -0.00000   0.00001   0.00000
 236        4XY        -0.00001   0.00000  -0.00000   0.00001   0.00000
 237        4XZ         0.00000  -0.00000   0.00000  -0.00000  -0.00000
 238        4YZ        -0.00000   0.00000  -0.00000   0.00000  -0.00000
 239 21  H  1S         -0.00002   0.00004  -0.00001   0.00001  -0.00001
 240        2S         -0.00002   0.00002  -0.00001   0.00007  -0.00003
 241        3PX         0.00001  -0.00002   0.00000  -0.00001  -0.00000
 242        3PY        -0.00000   0.00000  -0.00000  -0.00001  -0.00000
 243        3PZ         0.00000  -0.00000   0.00000   0.00000   0.00000
 244 22  H  1S         -0.00001   0.00002   0.00000   0.00000   0.00001
 245        2S         -0.00000  -0.00013  -0.00005  -0.00026   0.00006
 246        3PX         0.00001   0.00001   0.00001   0.00000   0.00000
 247        3PY        -0.00000   0.00000  -0.00000   0.00001  -0.00000
 248        3PZ         0.00000  -0.00001   0.00001  -0.00000   0.00000
 249 23  H  1S          0.00000   0.00000  -0.00000   0.00001  -0.00000
 250        2S          0.00004   0.00004  -0.00001   0.00001   0.00002
 251        3PX        -0.00000  -0.00000  -0.00000  -0.00001  -0.00001
 252        3PY        -0.00000   0.00000  -0.00000  -0.00000  -0.00000
 253        3PZ        -0.00000  -0.00000   0.00000   0.00000  -0.00000
 254 24  H  1S          0.00000   0.00000  -0.00001   0.00001   0.00001
 255        2S          0.00006  -0.00001   0.00005  -0.00002   0.00001
 256        3PX        -0.00000  -0.00000  -0.00000  -0.00001  -0.00000
 257        3PY         0.00000  -0.00000   0.00000  -0.00000  -0.00000
 258        3PZ         0.00000   0.00000   0.00000   0.00000   0.00000
 259 25  N  1S         -0.00000   0.00000   0.00000   0.00000   0.00000
 260        2S         -0.00001   0.00001   0.00000   0.00002   0.00002
 261        2PX         0.00000  -0.00000   0.00000  -0.00000  -0.00000
 262        2PY        -0.00000  -0.00000  -0.00000  -0.00000  -0.00000
 263        2PZ         0.00000  -0.00000   0.00000  -0.00000   0.00000
 264        3S          0.00002  -0.00004  -0.00002  -0.00014  -0.00013
 265        3PX        -0.00003   0.00004   0.00001   0.00005   0.00006
 266        3PY         0.00000   0.00000   0.00000   0.00005   0.00002
 267        3PZ        -0.00002   0.00001  -0.00001  -0.00001  -0.00003
 268        4XX        -0.00000   0.00000  -0.00000   0.00000   0.00000
 269        4YY        -0.00001   0.00001   0.00000   0.00001   0.00001
 270        4ZZ        -0.00000   0.00001  -0.00000   0.00001   0.00001
 271        4XY         0.00000  -0.00000   0.00000  -0.00001  -0.00000
 272        4XZ        -0.00000  -0.00000   0.00000   0.00000   0.00000
 273        4YZ        -0.00000   0.00000  -0.00000   0.00000   0.00000
 274 26  H  1S          0.00001  -0.00000   0.00000   0.00001   0.00001
 275        2S          0.00001  -0.00002   0.00001  -0.00001  -0.00000
 276        3PX        -0.00000   0.00000  -0.00000   0.00000  -0.00000
 277        3PY         0.00000  -0.00000  -0.00000  -0.00000  -0.00000
 278        3PZ        -0.00000   0.00000   0.00000  -0.00000   0.00000
 279 27  H  1S         -0.00001   0.00001   0.00000   0.00001   0.00000
 280        2S         -0.00000  -0.00000  -0.00000  -0.00001  -0.00001
 281        3PX         0.00000  -0.00000   0.00000  -0.00000  -0.00000
 282        3PY        -0.00000  -0.00000  -0.00000  -0.00000  -0.00000
 283        3PZ         0.00000  -0.00000   0.00000  -0.00000  -0.00000
                           6         7         8         9        10
                           O         O         O         O         O
     Eigenvalues --   -19.18573 -19.18329 -19.14683 -19.12193 -14.30824
   1 1   C  1S         -0.00002  -0.00000   0.00000  -0.00000  -0.00000
   2        2S          0.00013  -0.00005  -0.00004  -0.00006  -0.00000
   3        2PX         0.00007  -0.00002  -0.00001  -0.00004   0.00001
   4        2PY        -0.00004   0.00001  -0.00002   0.00001   0.00001
   5        2PZ        -0.00032  -0.00001  -0.00002   0.00004  -0.00000
   6        3S         -0.00101   0.00021   0.00011   0.00003   0.00009
   7        3PX        -0.00047   0.00002  -0.00043   0.00023   0.00000
   8        3PY         0.00016   0.00044  -0.00001  -0.00013  -0.00006
   9        3PZ         0.00100   0.00003   0.00018  -0.00034   0.00008
  10        4XX         0.00001  -0.00002   0.00006   0.00001   0.00001
  11        4YY         0.00001   0.00005   0.00001   0.00004   0.00000
  12        4ZZ         0.00019   0.00003   0.00003   0.00000  -0.00000
  13        4XY         0.00000  -0.00002   0.00004   0.00003  -0.00000
  14        4XZ        -0.00004  -0.00001  -0.00004   0.00000   0.00000
  15        4YZ         0.00003   0.00002   0.00000   0.00001  -0.00000
  16 2   O  1S          0.99275   0.00005   0.00002  -0.00002  -0.00000
  17        2S          0.02586   0.00006   0.00004  -0.00006  -0.00001
  18        2PX        -0.00093   0.00000  -0.00002   0.00001   0.00000
  19        2PY         0.00041   0.00002  -0.00002  -0.00004   0.00000
  20        2PZ         0.00036   0.00001   0.00002  -0.00001  -0.00000
  21        3S          0.01211  -0.00022  -0.00007   0.00010   0.00004
  22        3PX         0.00001  -0.00001   0.00010  -0.00003  -0.00002
  23        3PY         0.00001  -0.00009   0.00006   0.00015   0.00001
  24        3PZ         0.00048  -0.00011  -0.00006  -0.00002   0.00002
  25        4XX        -0.00801   0.00004   0.00005  -0.00006   0.00000
  26        4YY        -0.00809   0.00005   0.00004  -0.00004  -0.00000
  27        4ZZ        -0.00814   0.00003   0.00003  -0.00007   0.00000
  28        4XY        -0.00003  -0.00000  -0.00000   0.00001  -0.00000
  29        4XZ         0.00006   0.00000   0.00002  -0.00001   0.00000
  30        4YZ        -0.00003  -0.00001  -0.00000   0.00001   0.00000
  31 3   H  1S          0.00029   0.00002   0.00003  -0.00007  -0.00001
  32        2S         -0.00121  -0.00012  -0.00017   0.00009   0.00000
  33        3PX        -0.00014  -0.00000  -0.00001   0.00001  -0.00000
  34        3PY         0.00006   0.00001  -0.00000  -0.00002   0.00000
  35        3PZ        -0.00013  -0.00001  -0.00002   0.00000  -0.00000
  36 4   P  1S          0.00000  -0.00000   0.00002   0.00000  -0.00000
  37        2S          0.00004  -0.00004  -0.00004   0.00007   0.00000
  38        2PX        -0.00001   0.00001  -0.00001  -0.00001   0.00000
  39        2PY        -0.00000  -0.00000  -0.00000  -0.00000   0.00000
  40        2PZ        -0.00000  -0.00001  -0.00000   0.00000  -0.00000
  41        3S          0.00026  -0.00029   0.00092   0.00027   0.00001
  42        3PX         0.00010  -0.00009   0.00011   0.00012  -0.00001
  43        3PY         0.00007  -0.00002   0.00009   0.00006  -0.00000
  44        3PZ        -0.00003   0.00010   0.00015  -0.00002   0.00000
  45        4S         -0.00101   0.00135  -0.00370  -0.00131  -0.00006
  46        4PX        -0.00038   0.00008  -0.00021  -0.00004  -0.00003
  47        4PY        -0.00000   0.00082  -0.00083  -0.00106   0.00000
  48        4PZ         0.00041   0.00011  -0.00197   0.00000   0.00000
  49        5XX         0.00003   0.00002  -0.00022   0.00006  -0.00001
  50        5YY        -0.00002   0.00002  -0.00026   0.00005  -0.00000
  51        5ZZ        -0.00003   0.00009  -0.00007   0.00004  -0.00000
  52        5XY        -0.00001   0.00001   0.00001   0.00001  -0.00000
  53        5XZ        -0.00002  -0.00000  -0.00007  -0.00002   0.00000
  54        5YZ        -0.00001   0.00002   0.00001   0.00000  -0.00000
  55 5   P  1S          0.00000   0.00001  -0.00000   0.00001  -0.00000
  56        2S          0.00002  -0.00000  -0.00004  -0.00015  -0.00000
  57        2PX        -0.00001   0.00001  -0.00000   0.00001   0.00000
  58        2PY         0.00000   0.00002  -0.00000   0.00001  -0.00000
  59        2PZ        -0.00001  -0.00006  -0.00001  -0.00000   0.00000
  60        3S          0.00015   0.00044  -0.00030   0.00045  -0.00001
  61        3PX         0.00006  -0.00003   0.00004   0.00011   0.00000
  62        3PY        -0.00010  -0.00019   0.00006   0.00011   0.00000
  63        3PZ         0.00002   0.00020   0.00010  -0.00005  -0.00000
  64        4S         -0.00059  -0.00347   0.00093  -0.00101   0.00005
  65        4PX        -0.00010   0.00033  -0.00043  -0.00219   0.00004
  66        4PY         0.00019   0.00058  -0.00044  -0.00220   0.00000
  67        4PZ         0.00023  -0.00153   0.00014   0.00106   0.00000
  68        5XX        -0.00000  -0.00009   0.00000  -0.00024  -0.00000
  69        5YY        -0.00001  -0.00009   0.00001  -0.00024   0.00000
  70        5ZZ        -0.00002   0.00028   0.00005  -0.00026   0.00000
  71        5XY        -0.00003  -0.00008   0.00003   0.00002   0.00000
  72        5XZ        -0.00002  -0.00008  -0.00003  -0.00004  -0.00000
  73        5YZ         0.00001  -0.00002  -0.00002  -0.00002   0.00000
  74 6   O  1S         -0.00003   0.00006   0.00004  -0.00004  -0.00000
  75        2S         -0.00012   0.00014  -0.00004  -0.00012  -0.00000
  76        2PX        -0.00003   0.00001   0.00002  -0.00001  -0.00000
  77        2PY        -0.00001   0.00001  -0.00001  -0.00001  -0.00000
  78        2PZ         0.00002   0.00003  -0.00004  -0.00003  -0.00000
  79        3S          0.00053  -0.00066   0.00020   0.00063   0.00001
  80        3PX         0.00023  -0.00012   0.00002   0.00011   0.00001
  81        3PY        -0.00004  -0.00010   0.00008   0.00008   0.00000
  82        3PZ        -0.00006  -0.00017   0.00037   0.00017   0.00000
  83        4XX        -0.00005   0.00010  -0.00000  -0.00008  -0.00000
  84        4YY        -0.00009   0.00009   0.00001  -0.00009  -0.00000
  85        4ZZ        -0.00009   0.00009   0.00002  -0.00007  -0.00000
  86        4XY         0.00001  -0.00000   0.00000  -0.00000   0.00000
  87        4XZ        -0.00001  -0.00001   0.00004   0.00001   0.00000
  88        4YZ        -0.00001  -0.00001  -0.00002   0.00001  -0.00000
  89 7   H  1S         -0.00003   0.00005  -0.00006  -0.00004  -0.00000
  90        2S          0.00014  -0.00004   0.00016   0.00008   0.00000
  91        3PX         0.00000  -0.00000   0.00001   0.00001  -0.00000
  92        3PY        -0.00003  -0.00000   0.00000   0.00001  -0.00000
  93        3PZ         0.00000  -0.00000   0.00003   0.00000   0.00000
  94 8   O  1S         -0.00006  -0.00002   0.00004   0.00002  -0.00000
  95        2S         -0.00015  -0.00003  -0.00003   0.00006  -0.00000
  96        2PX        -0.00001   0.00001  -0.00001  -0.00001  -0.00000
  97        2PY        -0.00002  -0.00000  -0.00001   0.00000  -0.00000
  98        2PZ         0.00000   0.00000  -0.00004   0.00000  -0.00000
  99        3S          0.00069   0.00015   0.00018  -0.00030   0.00002
 100        3PX         0.00006  -0.00003   0.00003   0.00004   0.00000
 101        3PY         0.00021   0.00001   0.00020  -0.00004   0.00001
 102        3PZ        -0.00006  -0.00004   0.00033   0.00001  -0.00000
 103        4XX        -0.00010  -0.00002   0.00002   0.00004  -0.00000
 104        4YY        -0.00009  -0.00003   0.00005   0.00005  -0.00000
 105        4ZZ        -0.00011  -0.00004   0.00000   0.00006  -0.00000
 106        4XY         0.00001   0.00000   0.00000   0.00000  -0.00000
 107        4XZ        -0.00000  -0.00000   0.00001   0.00000   0.00000
 108        4YZ        -0.00001   0.00001   0.00001  -0.00001   0.00000
 109 9   H  1S         -0.00000   0.00001  -0.00008   0.00001  -0.00000
 110        2S          0.00003   0.00008   0.00025  -0.00016   0.00001
 111        3PX        -0.00000   0.00000  -0.00001  -0.00000   0.00000
 112        3PY         0.00000   0.00001   0.00002  -0.00002   0.00000
 113        3PZ        -0.00001  -0.00001   0.00003   0.00001  -0.00000
 114 10  O  1S         -0.00003   0.99266   0.00000   0.00004   0.00000
 115        2S          0.00002   0.02565  -0.00011   0.00013   0.00000
 116        2PX         0.00000  -0.00030   0.00002  -0.00004   0.00000
 117        2PY        -0.00000  -0.00059   0.00002  -0.00002   0.00000
 118        2PZ        -0.00001  -0.00051  -0.00005  -0.00005  -0.00000
 119        3S         -0.00009   0.01344   0.00056  -0.00061  -0.00002
 120        3PX        -0.00000   0.00001  -0.00021   0.00029  -0.00001
 121        3PY         0.00000  -0.00014  -0.00032   0.00024  -0.00000
 122        3PZ         0.00002  -0.00034   0.00029   0.00018   0.00000
 123        4XX         0.00003  -0.00831  -0.00005   0.00006   0.00000
 124        4YY         0.00002  -0.00831  -0.00001   0.00006   0.00000
 125        4ZZ         0.00002  -0.00839  -0.00010   0.00008   0.00000
 126        4XY         0.00000   0.00001   0.00005  -0.00004   0.00000
 127        4XZ         0.00000   0.00001  -0.00001  -0.00002   0.00000
 128        4YZ        -0.00001  -0.00001  -0.00002   0.00000  -0.00000
 129 11  H  1S          0.00001   0.00036  -0.00015   0.00015  -0.00000
 130        2S         -0.00002  -0.00160  -0.00103  -0.00030  -0.00000
 131        3PX        -0.00001  -0.00004   0.00001   0.00001  -0.00000
 132        3PY        -0.00001  -0.00002   0.00006   0.00003  -0.00000
 133        3PZ        -0.00000   0.00006   0.00004   0.00003   0.00000
 134 12  O  1S         -0.00005   0.00002   0.00000   0.00008  -0.00000
 135        2S         -0.00012  -0.00010   0.00003   0.00014  -0.00001
 136        2PX        -0.00002   0.00001   0.00001  -0.00002  -0.00000
 137        2PY         0.00002  -0.00001   0.00002  -0.00001   0.00000
 138        2PZ         0.00002  -0.00003  -0.00002   0.00005  -0.00000
 139        3S          0.00050   0.00058  -0.00026  -0.00074   0.00003
 140        3PX         0.00018   0.00011  -0.00004   0.00016   0.00000
 141        3PY        -0.00015  -0.00001  -0.00009   0.00013  -0.00001
 142        3PZ        -0.00006   0.00030   0.00004  -0.00026   0.00001
 143        4XX        -0.00007  -0.00003   0.00002   0.00015  -0.00000
 144        4YY        -0.00010  -0.00003  -0.00002   0.00012  -0.00001
 145        4ZZ        -0.00009  -0.00006   0.00001   0.00010  -0.00000
 146        4XY        -0.00002  -0.00001   0.00001  -0.00001  -0.00000
 147        4XZ        -0.00001   0.00003   0.00000  -0.00000   0.00000
 148        4YZ         0.00001  -0.00000  -0.00002   0.00001   0.00000
 149 13  H  1S          0.00001  -0.00005   0.00007  -0.00002   0.00000
 150        2S          0.00004   0.00011  -0.00000   0.00026   0.00001
 151        3PX        -0.00001   0.00001   0.00000   0.00004  -0.00000
 152        3PY        -0.00002  -0.00000  -0.00002   0.00002  -0.00000
 153        3PZ         0.00001   0.00001  -0.00000   0.00003   0.00000
 154 14  O  1S         -0.00002  -0.00004   0.00002   0.99272   0.00000
 155        2S         -0.00010  -0.00011  -0.00004   0.02558   0.00001
 156        2PX         0.00000  -0.00002   0.00000  -0.00066  -0.00000
 157        2PY         0.00003  -0.00001  -0.00000  -0.00063   0.00000
 158        2PZ         0.00001  -0.00004  -0.00000   0.00026   0.00000
 159        3S          0.00045   0.00066   0.00023   0.01289  -0.00004
 160        3PX        -0.00005  -0.00014   0.00002  -0.00026   0.00002
 161        3PY        -0.00014  -0.00015   0.00002  -0.00030   0.00000
 162        3PZ        -0.00004   0.00034   0.00000   0.00006  -0.00000
 163        4XX        -0.00007  -0.00002  -0.00005  -0.00818   0.00000
 164        4YY        -0.00006  -0.00003  -0.00005  -0.00818   0.00000
 165        4ZZ        -0.00008  -0.00008  -0.00004  -0.00820   0.00000
 166        4XY         0.00001   0.00000  -0.00001   0.00003  -0.00000
 167        4XZ         0.00000  -0.00002   0.00000  -0.00001   0.00000
 168        4YZ         0.00001  -0.00004   0.00000  -0.00001  -0.00000
 169 15  O  1S          0.00000  -0.00001   0.99268  -0.00006  -0.00000
 170        2S          0.00001   0.00005   0.02548  -0.00010  -0.00000
 171        2PX        -0.00001  -0.00000   0.00017   0.00001  -0.00000
 172        2PY        -0.00000  -0.00001  -0.00017  -0.00001   0.00000
 173        2PZ        -0.00000  -0.00004  -0.00081   0.00000   0.00000
 174        3S         -0.00007  -0.00029   0.01337   0.00059   0.00002
 175        3PX         0.00004   0.00006   0.00033  -0.00002   0.00000
 176        3PY        -0.00000   0.00020   0.00023   0.00008  -0.00000
 177        3PZ        -0.00002   0.00032  -0.00043  -0.00009  -0.00000
 178        4XX         0.00002   0.00003  -0.00832  -0.00006  -0.00000
 179        4YY         0.00003   0.00008  -0.00828  -0.00009  -0.00000
 180        4ZZ         0.00002  -0.00002  -0.00832  -0.00007  -0.00000
 181        4XY        -0.00001   0.00002   0.00003  -0.00001  -0.00000
 182        4XZ        -0.00000   0.00001  -0.00001   0.00002  -0.00000
 183        4YZ         0.00001   0.00002   0.00001  -0.00000  -0.00000
 184 16  C  1S          0.00001  -0.00002  -0.00001  -0.00001   0.00000
 185        2S          0.00011  -0.00009  -0.00004  -0.00002   0.00002
 186        2PX         0.00000  -0.00000   0.00008   0.00001  -0.00002
 187        2PY        -0.00000  -0.00007   0.00005  -0.00003   0.00001
 188        2PZ        -0.00009   0.00001  -0.00002  -0.00001  -0.00000
 189        3S          0.00014   0.00040  -0.00007  -0.00009  -0.00028
 190        3PX        -0.00020   0.00000  -0.00090  -0.00016   0.00003
 191        3PY         0.00013   0.00050  -0.00042   0.00007  -0.00012
 192        3PZ         0.00041  -0.00005   0.00008   0.00020   0.00003
 193        4XX         0.00001  -0.00003  -0.00003  -0.00001  -0.00000
 194        4YY         0.00003  -0.00005  -0.00002  -0.00002   0.00000
 195        4ZZ        -0.00005  -0.00004  -0.00001  -0.00003   0.00001
 196        4XY         0.00001  -0.00001  -0.00002  -0.00001  -0.00000
 197        4XZ        -0.00003  -0.00000   0.00002  -0.00001  -0.00001
 198        4YZ         0.00000   0.00000   0.00000  -0.00000   0.00000
 199 17  C  1S         -0.00002   0.00001  -0.00002  -0.00002   0.00000
 200        2S         -0.00012   0.00006  -0.00010  -0.00009   0.00005
 201        2PX        -0.00007   0.00004  -0.00001   0.00000   0.00001
 202        2PY        -0.00001  -0.00001  -0.00001  -0.00000   0.00000
 203        2PZ        -0.00003  -0.00002   0.00002  -0.00001  -0.00001
 204        3S          0.00086  -0.00056   0.00086   0.00055   0.00004
 205        3PX         0.00018   0.00004  -0.00041  -0.00008  -0.00030
 206        3PY        -0.00008  -0.00010  -0.00014   0.00008   0.00008
 207        3PZ        -0.00021   0.00003   0.00009   0.00014   0.00017
 208        4XX         0.00000  -0.00001   0.00001  -0.00002  -0.00006
 209        4YY        -0.00000   0.00000  -0.00002   0.00001   0.00000
 210        4ZZ         0.00001  -0.00001  -0.00002  -0.00006  -0.00000
 211        4XY        -0.00001   0.00002   0.00002  -0.00001   0.00001
 212        4XZ         0.00004   0.00000  -0.00002   0.00001   0.00000
 213        4YZ         0.00001  -0.00001  -0.00001   0.00000  -0.00001
 214 18  H  1S          0.00006   0.00003  -0.00006   0.00002  -0.00000
 215        2S          0.00016   0.00024  -0.00012   0.00005  -0.00001
 216        3PX        -0.00002  -0.00001   0.00004   0.00002  -0.00000
 217        3PY         0.00001   0.00002  -0.00000   0.00001   0.00000
 218        3PZ        -0.00005   0.00001  -0.00001  -0.00001  -0.00000
 219 19  H  1S         -0.00005  -0.00002  -0.00005  -0.00004   0.00000
 220        2S         -0.00028   0.00006   0.00018  -0.00009   0.00003
 221        3PX         0.00003  -0.00002   0.00000   0.00000  -0.00000
 222        3PY        -0.00001  -0.00000   0.00002  -0.00002   0.00000
 223        3PZ         0.00001   0.00000  -0.00000  -0.00000  -0.00000
 224 20  C  1S          0.00001  -0.00000  -0.00000   0.00001  -0.00001
 225        2S          0.00005  -0.00001  -0.00000   0.00003   0.00007
 226        2PX         0.00002  -0.00001   0.00001   0.00001   0.00021
 227        2PY         0.00000   0.00002  -0.00000  -0.00000   0.00013
 228        2PZ         0.00003   0.00001  -0.00000   0.00000  -0.00005
 229        3S         -0.00037   0.00008  -0.00006  -0.00021   0.00028
 230        3PX         0.00003  -0.00001  -0.00007   0.00002   0.00010
 231        3PY        -0.00018  -0.00006  -0.00003  -0.00008  -0.00016
 232        3PZ        -0.00005  -0.00008   0.00005  -0.00002  -0.00020
 233        4XX        -0.00001   0.00000  -0.00001  -0.00000   0.00006
 234        4YY         0.00001   0.00001  -0.00001   0.00001   0.00003
 235        4ZZ        -0.00001   0.00000  -0.00001   0.00001  -0.00000
 236        4XY         0.00001  -0.00000  -0.00000   0.00000   0.00006
 237        4XZ        -0.00001   0.00001   0.00000   0.00000  -0.00002
 238        4YZ         0.00001  -0.00000  -0.00000   0.00000  -0.00001
 239 21  H  1S          0.00008   0.00004  -0.00003  -0.00002   0.00002
 240        2S         -0.00067   0.00004  -0.00004   0.00007   0.00011
 241        3PX         0.00002   0.00001   0.00001  -0.00000   0.00002
 242        3PY        -0.00000   0.00000   0.00000  -0.00000   0.00000
 243        3PZ        -0.00006   0.00001  -0.00000   0.00002   0.00000
 244 22  H  1S         -0.00006  -0.00003  -0.00003   0.00002   0.00003
 245        2S          0.00007   0.00035  -0.00000  -0.00017  -0.00019
 246        3PX        -0.00003  -0.00002   0.00001  -0.00001   0.00001
 247        3PY        -0.00000  -0.00002  -0.00000   0.00004   0.00002
 248        3PZ        -0.00000  -0.00000  -0.00000   0.00001  -0.00000
 249 23  H  1S          0.00003   0.00001   0.00000   0.00001  -0.00002
 250        2S          0.00011   0.00002  -0.00003   0.00003  -0.00002
 251        3PX        -0.00000   0.00000   0.00001   0.00000  -0.00005
 252        3PY         0.00001   0.00000   0.00000   0.00000  -0.00001
 253        3PZ        -0.00001  -0.00000   0.00000  -0.00000   0.00004
 254 24  H  1S         -0.00001  -0.00001  -0.00000  -0.00000  -0.00008
 255        2S         -0.00005  -0.00007   0.00001   0.00001  -0.00013
 256        3PX         0.00000  -0.00000   0.00000  -0.00000  -0.00004
 257        3PY        -0.00001  -0.00001   0.00000   0.00000  -0.00004
 258        3PZ         0.00000   0.00000  -0.00000  -0.00000   0.00001
 259 25  N  1S          0.00000   0.00000  -0.00001  -0.00000   0.99274
 260        2S          0.00001   0.00000  -0.00002  -0.00001   0.03467
 261        2PX        -0.00001   0.00000   0.00001  -0.00000   0.00013
 262        2PY         0.00000   0.00000  -0.00000  -0.00000  -0.00125
 263        2PZ        -0.00001  -0.00000   0.00000  -0.00000  -0.00037
 264        3S         -0.00002  -0.00002   0.00014   0.00007   0.00349
 265        3PX        -0.00001  -0.00000  -0.00010  -0.00003   0.00014
 266        3PY        -0.00001   0.00001  -0.00001   0.00000   0.00052
 267        3PZ         0.00012   0.00001  -0.00000   0.00003  -0.00001
 268        4XX         0.00002   0.00001  -0.00001  -0.00000  -0.00812
 269        4YY         0.00001  -0.00000  -0.00002  -0.00001  -0.00817
 270        4ZZ         0.00001   0.00001  -0.00002  -0.00000  -0.00797
 271        4XY        -0.00000  -0.00000   0.00001  -0.00000  -0.00013
 272        4XZ        -0.00001  -0.00000  -0.00000  -0.00000   0.00006
 273        4YZ        -0.00000  -0.00000  -0.00000  -0.00000   0.00000
 274 26  H  1S         -0.00001  -0.00000   0.00001  -0.00000   0.00018
 275        2S         -0.00004   0.00001   0.00003  -0.00001  -0.00041
 276        3PX         0.00001   0.00000  -0.00000   0.00000   0.00017
 277        3PY        -0.00000  -0.00000   0.00000  -0.00000  -0.00008
 278        3PZ        -0.00000  -0.00000  -0.00000  -0.00000   0.00009
 279 27  H  1S          0.00001   0.00000  -0.00001   0.00001   0.00015
 280        2S          0.00012   0.00000   0.00002   0.00000  -0.00047
 281        3PX        -0.00001   0.00000   0.00000   0.00000   0.00003
 282        3PY         0.00000   0.00000  -0.00000  -0.00000  -0.00001
 283        3PZ         0.00001  -0.00000   0.00000   0.00000  -0.00021
                          11        12        13        14        15
                           O         O         O         O         O
     Eigenvalues --   -10.28561 -10.20949 -10.20668 -10.17859  -6.69780
   1 1   C  1S          0.99328  -0.00143  -0.00003   0.00001   0.00010
   2        2S          0.05004  -0.00022  -0.00027  -0.00005   0.00070
   3        2PX        -0.00007  -0.00004  -0.00008  -0.00015  -0.00007
   4        2PY        -0.00003   0.00008  -0.00005  -0.00004   0.00004
   5        2PZ        -0.00062  -0.00000  -0.00001  -0.00000   0.00013
   6        3S         -0.02113   0.00454   0.00174  -0.00027  -0.00387
   7        3PX        -0.00112   0.00240   0.00119   0.00025   0.00104
   8        3PY         0.00063  -0.00130   0.00001   0.00022   0.00205
   9        3PZ         0.00026   0.00111  -0.00005  -0.00015  -0.00035
  10        4XX        -0.00863  -0.00025  -0.00001  -0.00006   0.00008
  11        4YY        -0.00861  -0.00020  -0.00010  -0.00003   0.00018
  12        4ZZ        -0.00835  -0.00027  -0.00005  -0.00003   0.00012
  13        4XY         0.00001   0.00013  -0.00004  -0.00001  -0.00010
  14        4XZ         0.00001  -0.00006   0.00003  -0.00001  -0.00001
  15        4YZ         0.00000   0.00005   0.00000  -0.00003   0.00003
  16 2   O  1S         -0.00015  -0.00003   0.00001   0.00002  -0.00008
  17        2S         -0.00043  -0.00018   0.00007   0.00009  -0.00038
  18        2PX         0.00003  -0.00005  -0.00001   0.00000   0.00006
  19        2PY        -0.00003   0.00005   0.00000  -0.00002   0.00008
  20        2PZ        -0.00012  -0.00010  -0.00000  -0.00000  -0.00003
  21        3S          0.00407   0.00023  -0.00053  -0.00044   0.00189
  22        3PX         0.00003   0.00024  -0.00001  -0.00012  -0.00052
  23        3PY         0.00007  -0.00019  -0.00005   0.00006  -0.00066
  24        3PZ         0.00082   0.00039  -0.00019  -0.00007   0.00093
  25        4XX        -0.00024  -0.00008   0.00005   0.00006  -0.00025
  26        4YY        -0.00016  -0.00020   0.00001   0.00006  -0.00021
  27        4ZZ        -0.00082   0.00002   0.00001   0.00007  -0.00014
  28        4XY         0.00005  -0.00008  -0.00000   0.00001   0.00004
  29        4XZ         0.00010   0.00006  -0.00002  -0.00002  -0.00014
  30        4YZ        -0.00006  -0.00003  -0.00001   0.00001  -0.00011
  31 3   H  1S          0.00006   0.00010   0.00003   0.00000  -0.00007
  32        2S         -0.00038   0.00031   0.00001  -0.00004   0.00081
  33        3PX         0.00000   0.00001  -0.00000   0.00000   0.00002
  34        3PY        -0.00000   0.00000   0.00000  -0.00000  -0.00004
  35        3PZ         0.00011   0.00004   0.00002  -0.00001   0.00013
  36 4   P  1S          0.00000   0.00000  -0.00000  -0.00000  -0.27418
  37        2S         -0.00008  -0.00001  -0.00000  -0.00005   1.02395
  38        2PX        -0.00004  -0.00000   0.00000  -0.00001  -0.00322
  39        2PY         0.00000   0.00001  -0.00000   0.00000  -0.00421
  40        2PZ         0.00002  -0.00001   0.00000  -0.00000  -0.00366
  41        3S         -0.00009   0.00005  -0.00004  -0.00019   0.07562
[...]
    15  O   -0.370913   0.000000   0.036251   0.054075  -0.012333  -0.407483
    16  C   -0.047053   0.000000   0.024382   0.019697  -0.007999  -0.141332
    17  C   -0.051851   0.000000  -0.000809  -0.019824   0.017190  -0.154567
    18  H    0.031817   0.000000   0.018980  -0.131243  -0.027572   0.094747
    19  H    0.037091   0.000000   0.003784   0.005465   0.141813   0.098785
    20  C   -0.008015   0.000000   0.035612   0.024969  -0.023639  -0.062963
    21  H    0.030714   0.000000   0.024834  -0.003941  -0.135355   0.092138
    22  H    0.035400   0.000000   0.023348   0.123112   0.041519   0.098543
    23  H    0.028825   0.000000  -0.002922   0.007712   0.138248   0.092878
    24  H    0.010643   0.000000  -0.007120  -0.116927  -0.028513   0.071245
    25  N   -0.218087   0.000000  -0.028687  -0.213798  -0.045849  -0.667705
    26  H    0.098600   0.000000   0.146343  -0.092267   0.069324   0.283625
    27  H    0.097451   0.000000   0.027507  -0.027158  -0.179094   0.282826
       Tot  -0.000010   0.000000  -0.215793  -0.195494   0.084771  -0.000010
 Hirshfeld charges with hydrogens summed into heavy atoms:
              Q-H       Q-CM5   
     1  C    0.008699   0.076787
     2  O   -0.040067  -0.055297
     4  P    0.482456   0.434236
     5  P    0.471831   0.429618
     6  O   -0.071515  -0.053295
     8  O   -0.011598  -0.005659
    10  O   -0.101069  -0.069905
    12  O   -0.036293  -0.043845
    14  O   -0.377074  -0.393387
    15  O   -0.370913  -0.407483
    16  C    0.021856   0.052200
    17  C    0.014263   0.036113
    20  C    0.031452   0.101161
    25  N   -0.022037  -0.101254
 
 EQQ= 0.000000000000E+00 EQD= 0.000000000000E+00 EDD= 0.116498037150E-01
 EQQ+QD+DD= 0.116498037150E-01
 
 Orbital energies and kinetic energies (alpha):
                                 1                 2
   1         O               -77.248051        106.045177
   2         O               -77.229842        106.045325
   3         O               -19.215938         29.025545
   4         O               -19.211409         29.024367
   5         O               -19.207358         29.025443
   6         O               -19.185725         29.027794
   7         O               -19.183290         29.024425
   8         O               -19.146832         29.026475
   9         O               -19.121927         29.027769
  10         O               -14.308242         21.960474
  11         O               -10.285605         15.890996
  12         O               -10.209493         15.886019
  13         O               -10.206683         15.887143
  14         O               -10.178586         15.885201
  15         O                -6.697803         15.693073
  16         O                -6.679776         15.693190
  17         O                -4.862134         14.705854
  18         O                -4.860966         14.704265
  19         O                -4.858716         14.710959
  20         O                -4.844370         14.708867
  21         O                -4.842622         14.708365
  22         O                -4.840696         14.705940
  23         O                -1.109588          2.503861
  24         O                -1.088170          2.549324
  25         O                -1.061231          2.673745
  26         O                -1.056071          2.600952
  27         O                -1.042543          2.720545
  28         O                -0.994216          2.869168
  29         O                -0.971287          2.885640
  30         O                -0.876148          1.723545
  31         O                -0.806078          1.552627
  32         O                -0.732975          1.710553
  33         O                -0.668914          1.937481
  34         O                -0.659637          1.977167
  35         O                -0.610934          1.872238
  36         O                -0.589922          1.389227
  37         O                -0.576742          1.886186
  38         O                -0.556645          2.021357
  39         O                -0.552168          1.907252
  40         O                -0.523920          1.773571
  41         O                -0.490209          1.817215
  42         O                -0.479818          1.866732
  43         O                -0.472836          1.769816
  44         O                -0.465078          1.516399
  45         O                -0.454589          1.686897
  46         O                -0.447796          1.978595
  47         O                -0.434044          1.933731
  48         O                -0.419470          1.782402
  49         O                -0.411012          2.278077
  50         O                -0.409164          2.212968
  51         O                -0.389037          1.486112
  52         O                -0.385945          2.303348
  53         O                -0.382522          2.157747
  54         O                -0.381240          2.041995
  55         O                -0.366809          1.928715
  56         O                -0.354650          1.807557
  57         O                -0.353607          2.051774
  58         O                -0.343750          1.918487
  59         O                -0.337888          1.786195
  60         O                -0.329875          1.620593
  61         O                -0.325904          2.269803
  62         O                -0.306485          2.167038
  63         O                -0.302432          2.285542
  64         O                -0.275840          2.317452
  65         O                -0.230311          1.646697
  66         V                 0.006363          1.880656
  67         V                 0.023758          1.783785
  68         V                 0.047323          2.074428
  69         V                 0.060163          2.124282
  70         V                 0.075862          1.539339
  71         V                 0.084316          1.283733
  72         V                 0.099784          1.803557
  73         V                 0.105109          1.810304
  74         V                 0.105830          2.203451
  75         V                 0.116210          1.781829
  76         V                 0.124875          2.043838
  77         V                 0.130499          1.471811
  78         V                 0.140305          1.944470
  79         V                 0.145193          1.831083
  80         V                 0.155270          1.285575
  81         V                 0.164449          1.649837
  82         V                 0.178492          1.986896
  83         V                 0.188792          1.592112
  84         V                 0.192755          1.438471
  85         V                 0.207767          1.774179
  86         V                 0.211752          1.432823
  87         V                 0.236677          1.736987
  88         V                 0.244479          1.573303
  89         V                 0.252501          2.208001
  90         V                 0.265330          2.080748
  91         V                 0.288900          2.055817
  92         V                 0.301001          1.990685
  93         V                 0.325384          2.104688
  94         V                 0.366155          2.039981
  95         V                 0.378108          2.308606
  96         V                 0.398003          2.313888
  97         V                 0.403826          1.869595
  98         V                 0.415012          1.788158
  99         V                 0.451186          2.454641
 100         V                 0.491314          2.378935
 101         V                 0.518598          2.271377
 102         V                 0.532970          2.421278
 103         V                 0.553304          2.127289
 104         V                 0.557623          2.247633
 105         V                 0.579893          1.895631
 106         V                 0.599948          2.075850
 107         V                 0.604524          2.416208
 108         V                 0.649142          2.226469
 109         V                 0.670489          2.329500
 110         V                 0.682403          2.352211
 111         V                 0.705177          2.340633
 112         V                 0.723642          2.537776
 113         V                 0.724137          2.535919
 114         V                 0.730506          2.614345
 115         V                 0.736311          2.498833
 116         V                 0.753031          2.639699
 117         V                 0.774067          2.702972
 118         V                 0.780641          2.492834
 119         V                 0.790885          2.581242
 120         V                 0.803105          2.572923
 121         V                 0.809860          2.545895
 122         V                 0.826948          2.567525
 123         V                 0.842193          2.560295
 124         V                 0.851807          2.629329
 125         V                 0.860951          2.544982
 126         V                 0.863826          2.539547
 127         V                 0.875599          2.801141
 128         V                 0.881417          2.773140
 129         V                 0.882342          2.776415
 130         V                 0.903065          2.857733
 131         V                 0.903680          2.636287
 132         V                 0.924048          2.858546
 133         V                 0.932910          2.766082
 134         V                 0.942124          2.837805
 135         V                 0.955911          2.876104
 136         V                 0.962458          2.957322
 137         V                 0.972518          3.118305
 138         V                 0.975011          2.773184
 139         V                 0.979283          3.144800
 140         V                 1.002350          2.843751
 141         V                 1.007299          3.096339
 142         V                 1.018317          3.056166
 143         V                 1.029897          3.134163
 144         V                 1.043889          3.127080
 145         V                 1.045120          3.051138
 146         V                 1.053478          3.201556
 147         V                 1.062505          2.916463
 148         V                 1.097208          3.072646
 149         V                 1.111510          3.132204
 150         V                 1.138210          3.040403
 151         V                 1.167006          3.527390
 152         V                 1.170298          3.274669
 153         V                 1.185632          3.705517
 154         V                 1.194609          3.111524
 155         V                 1.202502          3.400870
 156         V                 1.206460          3.126745
 157         V                 1.251001          3.177639
 158         V                 1.264854          2.829197
 159         V                 1.284981          3.200494
 160         V                 1.304003          2.542145
 161         V                 1.321287          2.998913
 162         V                 1.343468          2.517991
 163         V                 1.369751          2.603790
 164         V                 1.404178          2.524747
 165         V                 1.425830          2.627951
 166         V                 1.429963          2.694110
 167         V                 1.467213          2.687070
 168         V                 1.513357          2.720522
 169         V                 1.520102          2.697776
 170         V                 1.531687          2.721923
 171         V                 1.556550          2.657095
 172         V                 1.564126          2.688217
 173         V                 1.571702          2.723147
 174         V                 1.584731          2.755648
 175         V                 1.594635          2.694487
 176         V                 1.605582          2.754777
 177         V                 1.638664          2.855049
 178         V                 1.654327          2.796987
 179         V                 1.665315          2.856162
 180         V                 1.692672          2.701065
 181         V                 1.706636          2.866478
 182         V                 1.719503          2.921019
 183         V                 1.738040          2.835861
 184         V                 1.745196          2.967715
 185         V                 1.763215          2.957559
 186         V                 1.778423          2.937031
 187         V                 1.803931          3.040167
 188         V                 1.813513          2.952937
 189         V                 1.831480          3.097043
 190         V                 1.843273          3.070111
 191         V                 1.850275          3.125311
 192         V                 1.856353          3.333225
 193         V                 1.864807          3.067782
 194         V                 1.879846          3.338493
 195         V                 1.884143          3.126297
 196         V                 1.898725          3.230616
 197         V                 1.922908          3.276658
 198         V                 1.949527          3.269670
 199         V                 1.975656          3.407095
 200         V                 2.019188          3.599198
 201         V                 2.028259          3.454212
 202         V                 2.051984          3.378124
 203         V                 2.059984          3.348278
 204         V                 2.072704          3.343753
 205         V                 2.092712          3.272821
 206         V                 2.097515          3.301487
 207         V                 2.125605          3.339251
 208         V                 2.140003          3.416194
 209         V                 2.152642          3.426292
 210         V                 2.177995          3.475586
 211         V                 2.179441          3.430186
 212         V                 2.224550          3.481488
 213         V                 2.245388          3.166820
 214         V                 2.246985          3.240319
 215         V                 2.277496          3.158556
 216         V                 2.293668          3.660072
 217         V                 2.296906          3.681200
 218         V                 2.315989          3.511289
 219         V                 2.318718          3.735143
 220         V                 2.372667          3.608096
 221         V                 2.377197          3.498351
 222         V                 2.389786          3.698810
 223         V                 2.415014          3.513303
 224         V                 2.426884          3.692136
 225         V                 2.445115          4.318159
 226         V                 2.465980          4.296528
 227         V                 2.475509          4.152360
 228         V                 2.499364          3.976399
 229         V                 2.511498          3.808085
 230         V                 2.560802          3.583264
 231         V                 2.566414          3.837871
 232         V                 2.586613          3.602107
 233         V                 2.603891          3.666553
 234         V                 2.607695          3.977112
 235         V                 2.616309          3.998499
 236         V                 2.619417          3.818307
 237         V                 2.627162          4.014370
 238         V                 2.653050          3.813097
 239         V                 2.655114          3.858546
 240         V                 2.661772          3.762530
 241         V                 2.668068          3.928888
 242         V                 2.707808          3.977239
 243         V                 2.739343          3.926919
 244         V                 2.752269          4.107191
 245         V                 2.765943          4.105608
 246         V                 2.777974          4.061797
 247         V                 2.821594          4.614384
 248         V                 2.835754          4.102880
 249         V                 2.850327          4.074637
 250         V                 2.868172          4.540888
 251         V                 2.886254          4.038191
 252         V                 2.902672          4.004517
 253         V                 2.936126          4.207608
 254         V                 2.954983          4.164268
 255         V                 2.974925          4.043022
 256         V                 3.040672          4.672182
 257         V                 3.241026          5.009891
 258         V                 3.284505          4.992030
 259         V                 3.299506          5.422915
 260         V                 3.316383          6.462729
 261         V                 3.331434          6.267477
 262         V                 3.355861          5.119146
 263         V                 3.377929          5.807651
 264         V                 3.391626          5.592406
 265         V                 3.438182          6.190080
 266         V                 3.448146          6.181293
 267         V                 3.480529          5.562335
 268         V                 3.512122          9.999518
 269         V                 3.539852          9.717428
 270         V                 3.542721          5.311412
 271         V                 3.583136          5.274677
 272         V                 3.792280          9.357337
 273         V                 3.925626          9.797419
 274         V                 4.008455          9.644750
 275         V                 4.011404         10.121757
 276         V                 4.043648          9.935337
 277         V                 4.093937         10.714582
 278         V                 4.189397         10.749400
 279         V                 4.275127         10.664117
 280         V                 4.314692         10.437505
 281         V                 4.418191         10.485907
 282         V                 4.559123         10.309681
 283         V                 4.727663         10.530749
 Total kinetic energy from orbitals= 1.415197991587D+03

 Test job not archived.
 1\1\GINC-BATAGIN2\SP\RB3LYP\6-31G(d,p)\C4H13N1O7P2\ORISON\22-Jan-2021\
 0\\#t B3LYP/6-31G(d,p) # Gfinput IOP(6/7=3) Pop=hirshfeld Density Test
  # Units(Ang,Deg)\\alendronate-2-opt-g09.log\\0,1\C,0,0.12693,-0.17508
 ,0.39297\O,0,-0.01706,-0.2741,1.79834\H,0,0.78612,0.06316,2.22105\P,0,
 1.6333,-1.12374,-0.17389\P,0,0.37155,1.6145,-0.12026\O,0,2.77056,-0.77
 761,0.91378\H,0,2.95167,0.18171,0.89493\O,0,1.37689,-2.67544,0.15834\H
 ,0,1.44816,-3.20863,-0.64725\O,0,0.69143,1.56244,-1.68555\H,0,1.23106,
 0.76535,-1.92703\O,0,1.82706,1.84341,0.65121\H,0,1.9417,2.78055,0.8726
 \O,0,-0.63144,2.62573,0.27432\O,0,1.95355,-0.83495,-1.61041\C,0,-1.132
 76,-0.78068,-0.2591\C,0,-2.4575,-0.1551,0.20152\H,0,-1.1323,-1.84899,-
 0.01258\H,0,-1.03062,-0.69913,-1.34753\C,0,-3.66029,-0.89805,-0.3855\H
 ,0,-2.50217,-0.19222,1.29587\H,0,-2.5133,0.89983,-0.07955\H,0,-3.62435
 ,-0.84086,-1.48134\H,0,-3.58188,-1.97165,-0.12774\N,0,-4.90833,-0.2678
 3,0.05135\H,0,-5.70387,-0.744,-0.36671\H,0,-5.01084,-0.37423,1.05859\\
 Version=EM64L-G16RevA.03\State=1-A\HF=-1424.4339292\RMSD=5.183e-09\Dip
 ole=0.6799727,-1.1805121,0.4375328\Quadrupole=2.4312501,0.0768213,-2.5
 080714,12.7056081,2.7615024,6.3783862\PG=C01 [X(C4H13N1O7P2)]\\@


 In the race for quality, there is no finish line.
                               -- David T. Kearns
 Job cpu time:       0 days  0 hours  6 minutes 34.8 seconds.
 Elapsed time:       0 days  0 hours  0 minutes 49.4 seconds.
 File lengths (MBytes):  RWF=     48 Int=      0 D2E=      0 Chk=      6 Scr=      1
 Normal termination of Gaussian 16 at Fri Jan 22 01:55:20 2021.
