 Entering Gaussian System, Link 0=g16
 Input=alendronate_anion_scf_g09.com
 Output=alendronate_anion_scf_g09.log
 Initial command:
 /usr/local//g16/l1.exe "/home/orison/scrgauss/Gau-21144.inp" -scrdir="/home/orison/scrgauss/"
 Entering Link 1 = /usr/local//g16/l1.exe PID=     21146.
  
 Copyright (c) 1988,1990,1992,1993,1995,1998,2003,2009,2016,
            Gaussian, Inc.  All Rights Reserved.
  
 This is part of the Gaussian(R) 16 program.  It is based on
 the Gaussian(R) 09 system (copyright 2009, Gaussian, Inc.),
 the Gaussian(R) 03 system (copyright 2003, Gaussian, Inc.),
 the Gaussian(R) 98 system (copyright 1998, Gaussian, Inc.),
 the Gaussian(R) 94 system (copyright 1995, Gaussian, Inc.),
 the Gaussian 92(TM) system (copyright 1992, Gaussian, Inc.),
 the Gaussian 90(TM) system (copyright 1990, Gaussian, Inc.),
 the Gaussian 88(TM) system (copyright 1988, Gaussian, Inc.),
 the Gaussian 86(TM) system (copyright 1986, Carnegie Mellon
 University), and the Gaussian 82(TM) system (copyright 1983,
 Carnegie Mellon University). Gaussian is a federally registered
 trademark of Gaussian, Inc.
  
 This software contains proprietary and confidential information,
 including trade secrets, belonging to Gaussian, Inc.
  
 This software is provided under written license and may be
 used, copied, transmitted, or stored only in accord with that
 written license.
  
 The following legend is applicable only to US Government
 contracts under FAR:
  
                    RESTRICTED RIGHTS LEGEND
  
 Use, reproduction and disclosure by the US Government is
 subject to restrictions as set forth in subparagraphs (a)
 and (c) of the Commercial Computer Software - Restricted
 Rights clause in FAR 52.227-19.
  
 Gaussian, Inc.
 340 Quinnipiac St., Bldg. 40, Wallingford CT 06492
  
  
 ---------------------------------------------------------------
 Warning -- This program may not be used in any manner that
 competes with the business of Gaussian, Inc. or will provide
 assistance to any competitor of Gaussian, Inc.  The licensee
 of this program is prohibited from giving any competitor of
 Gaussian, Inc. access to this program.  By using this program,
 the user acknowledges that Gaussian, Inc. is engaged in the
 business of creating and licensing software in the field of
 computational chemistry and represents and warrants to the
 licensee that it is not a competitor of Gaussian, Inc. and that
 it will not use this program in any manner prohibited above.
 ---------------------------------------------------------------
  

 Cite this work as:
 Gaussian 16, Revision A.03,
 M. J. Frisch, G. W. Trucks, H. B. Schlegel, G. E. Scuseria, 
 M. A. Robb, J. R. Cheeseman, G. Scalmani, V. Barone, 
 G. A. Petersson, H. Nakatsuji, X. Li, M. Caricato, A. V. Marenich, 
 J. Bloino, B. G. Janesko, R. Gomperts, B. Mennucci, H. P. Hratchian, 
 J. V. Ortiz, A. F. Izmaylov, J. L. Sonnenberg, D. Williams-Young, 
 F. Ding, F. Lipparini, F. Egidi, J. Goings, B. Peng, A. Petrone, 
 T. Henderson, D. Ranasinghe, V. G. Zakrzewski, J. Gao, N. Rega, 
 G. Zheng, W. Liang, M. Hada, M. Ehara, K. Toyota, R. Fukuda, 
 J. Hasegawa, M. Ishida, T. Nakajima, Y. Honda, O. Kitao, H. Nakai, 
 T. Vreven, K. Throssell, J. A. Montgomery, Jr., J. E. Peralta, 
 F. Ogliaro, M. J. Bearpark, J. J. Heyd, E. N. Brothers, K. N. Kudin, 
 V. N. Staroverov, T. A. Keith, R. Kobayashi, J. Normand, 
 K. Raghavachari, A. P. Rendell, J. C. Burant, S. S. Iyengar, 
 J. Tomasi, M. Cossi, J. M. Millam, M. Klene, C. Adamo, R. Cammi, 
 J. W. Ochterski, R. L. Martin, K. Morokuma, O. Farkas, 
 J. B. Foresman, and D. J. Fox, Gaussian, Inc., Wallingford CT, 2016.
 
 ******************************************
 Gaussian 16:  EM64L-G16RevA.03 25-Dec-2016
                22-Jan-2021 
 ******************************************
 %nproc=8
 Will use up to    8 processors via shared memory.
 %Mem=4GB
 ----------------------------------------------------------------------
 #t B3LYP/6-31G(d,p) # Gfinput IOP(6/7=3) Pop=hirshfeld Density Test # 
 Units(Ang,Deg)
 ----------------------------------------------------------------------
 -------------------------
 alendronate-2-opt-g09.log
 -------------------------
 Symbolic Z-matrix:
 Charge = -1 Multiplicity = 2
 C                     0.12693  -0.17508   0.39297 
 O                    -0.01706  -0.2741    1.79834 
 H                     0.78612   0.06316   2.22105 
 P                     1.6333   -1.12374  -0.17389 
 P                     0.37155   1.6145   -0.12026 
 O                     2.77056  -0.77761   0.91378 
 H                     2.95167   0.18171   0.89493 
 O                     1.37689  -2.67544   0.15834 
 H                     1.44816  -3.20863  -0.64725 
 O                     0.69143   1.56244  -1.68555 
 H                     1.23106   0.76535  -1.92703 
 O                     1.82706   1.84341   0.65121 
 H                     1.9417    2.78055   0.8726 
 O                    -0.63144   2.62573   0.27432 
 O                     1.95355  -0.83495  -1.61041 
 C                    -1.13276  -0.78068  -0.2591 
 C                    -2.4575   -0.1551    0.20152 
 H                    -1.1323   -1.84899  -0.01258 
 H                    -1.03062  -0.69913  -1.34753 
 C                    -3.66029  -0.89805  -0.3855 
 H                    -2.50217  -0.19222   1.29587 
 H                    -2.5133    0.89983  -0.07955 
 H                    -3.62435  -0.84086  -1.48134 
 H                    -3.58188  -1.97165  -0.12774 
 N                    -4.90833  -0.26783   0.05135 
 H                    -5.70387  -0.744    -0.36671 
 H                    -5.01084  -0.37423   1.05859 
 
                    Distance matrix (angstroms):
                    1          2          3          4          5
     1  C    0.000000
     2  O    1.416193   0.000000
     3  H    1.957847   0.968259   0.000000
     4  P    1.868271   2.708370   2.803958   0.000000
     5  P    1.877722   2.720083   2.839059   3.015435   0.000000
     6  O    2.760990   2.967624   2.520685   1.611270   3.542129
     7  H    2.891093   3.136442   2.542097   2.141186   3.120980
     8  O    2.805219   3.224768   3.479039   1.607450   4.414965
     9  H    3.468448   4.091362   4.401142   2.145953   4.969848
    10  O    2.767288   4.001541   4.185490   3.223011   1.598489
    11  H    2.736039   4.064067   4.230557   2.608440   2.173530
    12  O    2.651685   3.033238   2.591765   3.085824   1.663152
    13  H    3.501312   3.744946   3.246212   4.053854   2.193357
    14  O    2.904090   3.333034   3.516532   4.403233   1.477927
    15  O    2.790251   3.977114   4.104824   1.499850   3.274611
    16  C    1.542325   2.394675   3.247354   2.788555   2.831804
    17  C    2.591588   2.918860   3.827167   4.220645   3.352395
    18  H    2.133566   2.646407   3.510806   2.863661   3.777423
    19  H    2.154969   3.332334   4.076321   2.941801   2.970716
    20  C    3.933413   4.293203   5.242956   5.302623   4.758045
    21  H    2.779872   2.536721   3.425497   4.486651   3.678033
    22  H    2.889554   3.337034   4.108400   4.614979   2.972334
    23  H    4.245987   4.908162   5.828996   5.425157   4.883498
    24  H    4.153802   4.393108   5.360661   5.283861   5.337615
    25  N    5.047688   5.193894   6.102779   6.601230   5.608008
    26  H    5.907539   6.103119   7.033348   7.349520   6.521809
    27  H    5.184534   5.049267   5.928522   6.798924   5.857888
                    6          7          8          9         10
     6  O    0.000000
     7  H    0.976448   0.000000
     8  O    2.472805   3.344518   0.000000
     9  H    3.177328   4.016624   0.968683   0.000000
    10  O    4.068800   3.697834   4.672196   4.941034   0.000000
    11  H    3.580641   3.356277   4.026049   4.180608   0.992404
    12  O    2.798014   2.021236   4.567886   5.229978   2.613245
    13  H    3.653657   2.788280   5.531456   6.198694   3.096950
    14  O    4.854404   4.381446   5.670030   6.262091   2.592617
    15  O    2.653739   2.882112   2.616948   2.611025   2.710364
    16  C    4.075729   4.352074   3.172178   3.564653   3.294335
    17  C    5.312951   5.463825   4.588739   5.029775   4.052991
    18  H    4.151905   4.650390   2.647313   2.984996   4.214579
    19  H    4.423647   4.654368   3.459704   3.596155   2.862588
    20  C    6.561895   6.820806   5.369177   5.612803   5.165424
    21  H    5.318868   5.481327   4.744203   5.336624   4.708161
    22  H    5.632023   5.597428   5.288925   5.735407   3.645351
    23  H    6.829017   7.066565   5.573745   5.659717   4.944038
    24  H    6.547060   6.954861   5.016629   5.205892   5.760012
    25  N    7.743966   7.917911   6.731421   7.038559   6.141988
    26  H    8.570691   8.795854   7.358213   7.569983   6.925234
    27  H    7.793194   7.983572   6.849023   7.256886   6.617921
                   11         12         13         14         15
    11  H    0.000000
    12  O    2.857403   0.000000
    13  H    3.521927   0.969736   0.000000
    14  O    3.431598   2.607354   2.646310   0.000000
    15  O    1.784152   3.507782   4.386037   4.712822   0.000000
    16  C    3.280220   4.058947   4.838947   3.484177   3.369613
    17  C    4.356998   4.749075   5.331168   3.327583   4.816913
    18  H    4.010656   4.778310   5.627225   4.511795   3.619918
    19  H    2.756033   4.315763   5.086437   3.720811   2.998804
    20  C    5.391523   6.221043   6.818886   4.693221   5.746267
    21  H    5.024045   4.827174   5.363255   3.533276   5.358452
    22  H    4.177499   4.501453   4.928562   2.577858   5.030481
    23  H    5.133572   6.439794   7.045322   4.904804   5.579396
    24  H    5.821770   6.664689   7.354864   5.477468   5.842207
    25  N    6.532500   7.083971   7.542545   5.168577   7.082970
    26  H    7.266773   8.027812   8.509588   6.123361   7.758295
    27  H    7.012409   7.200053   7.637083   5.366003   7.472520
                   16         17         18         19         20
    16  C    0.000000
    17  C    1.535727   0.000000
    18  H    1.096384   2.161309   0.000000
    19  H    1.096249   2.175204   1.764825   0.000000
    20  C    2.533409   1.530775   2.726553   2.807176   0.000000
    21  H    2.153950   1.095890   2.516639   3.067569   2.160195
    22  H    2.182256   1.093157   3.076956   2.522456   2.154429
    23  H    2.775881   2.159589   3.063314   2.601044   1.097920
    24  H    2.726509   2.161596   2.455351   3.100987   1.106890
    25  N    3.822868   2.458013   4.094210   4.144818   1.464793
    26  H    4.572524   3.347926   4.716531   4.775279   2.049464
    27  H    4.115946   2.702246   4.285487   4.662309   2.045426
                   21         22         23         24         25
    21  H    0.000000
    22  H    1.756268   0.000000
    23  H    3.064787   2.495886   0.000000
    24  H    2.521668   3.064243   1.764291   0.000000
    25  N    2.710010   2.667721   2.079929   2.166690   0.000000
    26  H    3.649591   3.600608   2.361395   2.463143   1.017053
    27  H    2.526431   3.025937   2.931099   2.449705   1.018019
                   26         27
    26  H    0.000000
    27  H    1.627421   0.000000
 Framework group  C1[X(C4H13NO7P2)]
 Deg. of freedom    75
                         Standard orientation:                         
 ---------------------------------------------------------------------
 Center     Atomic      Atomic             Coordinates (Angstroms)
 Number     Number       Type             X           Y           Z
 ---------------------------------------------------------------------
      1          6           0       -0.126930   -0.175079   -0.392969
      2          8           0        0.017060   -0.274099   -1.798339
      3          1           0       -0.786120    0.063161   -2.221049
      4         15           0       -1.633300   -1.123738    0.173891
      5         15           0       -0.371549    1.614501    0.120261
      6          8           0       -2.770560   -0.777608   -0.913779
      7          1           0       -2.951670    0.181712   -0.894929
      8          8           0       -1.376891   -2.675438   -0.158339
      9          1           0       -1.448161   -3.208628    0.647251
     10          8           0       -0.691429    1.562441    1.685551
     11          1           0       -1.231060    0.765352    1.927031
     12          8           0       -1.827059    1.843412   -0.651209
     13          1           0       -1.941699    2.780552   -0.872599
     14          8           0        0.631441    2.625731   -0.274319
     15          8           0       -1.953550   -0.834948    1.610411
     16          6           0        1.132760   -0.780679    0.259101
     17          6           0        2.457500   -0.155100   -0.201519
     18          1           0        1.132299   -1.848989    0.012581
     19          1           0        1.030620   -0.699129    1.347531
     20          6           0        3.660290   -0.898050    0.385501
     21          1           0        2.502170   -0.192220   -1.295869
     22          1           0        2.513300    0.899830    0.079551
     23          1           0        3.624350   -0.840860    1.481341
     24          1           0        3.581879   -1.971650    0.127741
     25          7           0        4.908330   -0.267831   -0.051349
     26          1           0        5.703870   -0.744001    0.366711
     27          1           0        5.010840   -0.374231   -1.058589
 ---------------------------------------------------------------------
 Rotational constants (GHZ):           0.7312008           0.4028206           0.3204638
 AO basis set in the form of general basis input (Overlap normalization):
      1 0
 S   6 1.00       0.000000000000
      0.3047524880D+04  0.1834737132D-02
      0.4573695180D+03  0.1403732281D-01
      0.1039486850D+03  0.6884262226D-01
      0.2921015530D+02  0.2321844432D+00
      0.9286662960D+01  0.4679413484D+00
      0.3163926960D+01  0.3623119853D+00
 SP   3 1.00       0.000000000000
      0.7868272350D+01 -0.1193324198D+00  0.6899906659D-01
      0.1881288540D+01 -0.1608541517D+00  0.3164239610D+00
      0.5442492580D+00  0.1143456438D+01  0.7443082909D+00
 SP   1 1.00       0.000000000000
      0.1687144782D+00  0.1000000000D+01  0.1000000000D+01
 D   1 1.00       0.000000000000
      0.8000000000D+00  0.1000000000D+01
 ****
      2 0
 S   6 1.00       0.000000000000
      0.5484671660D+04  0.1831074430D-02
      0.8252349460D+03  0.1395017220D-01
      0.1880469580D+03  0.6844507810D-01
      0.5296450000D+02  0.2327143360D+00
      0.1689757040D+02  0.4701928980D+00
      0.5799635340D+01  0.3585208530D+00
 SP   3 1.00       0.000000000000
      0.1553961625D+02 -0.1107775495D+00  0.7087426823D-01
      0.3599933586D+01 -0.1480262627D+00  0.3397528391D+00
      0.1013761750D+01  0.1130767015D+01  0.7271585773D+00
 SP   1 1.00       0.000000000000
      0.2700058226D+00  0.1000000000D+01  0.1000000000D+01
 D   1 1.00       0.000000000000
      0.8000000000D+00  0.1000000000D+01
 ****
      3 0
 S   3 1.00       0.000000000000
      0.1873113696D+02  0.3349460434D-01
      0.2825394365D+01  0.2347269535D+00
      0.6401216923D+00  0.8137573261D+00
 S   1 1.00       0.000000000000
      0.1612777588D+00  0.1000000000D+01
 P   1 1.00       0.000000000000
      0.1100000000D+01  0.1000000000D+01
 ****
      4 0
 S   6 1.00       0.000000000000
      0.1941330000D+05  0.1851598923D-02
      0.2909420000D+04  0.1420619174D-01
      0.6613640000D+03  0.6999945928D-01
      0.1857590000D+03  0.2400788603D+00
      0.5919430000D+02  0.4847617180D+00
      0.2003100000D+02  0.3351998050D+00
 SP   6 1.00       0.000000000000
      0.3394780000D+03 -0.2782170105D-02  0.4564616191D-02
      0.8101010000D+02 -0.3604990135D-01  0.3369357188D-01
      0.2587800000D+02 -0.1166310044D+00  0.1397548834D+00
      0.9452210000D+01  0.9683280364D-01  0.3393617168D+00
      0.3665660000D+01  0.6144180231D+00  0.4509206237D+00
      0.1467460000D+01  0.4037980152D+00  0.2385858009D+00
 SP   3 1.00       0.000000000000
      0.2156230000D+01 -0.2529241139D+00 -0.1776531273D-01
      0.7489970000D+00  0.3285184468D-01  0.2740581964D+00
      0.2831450000D+00  0.1081254762D+01  0.7854215630D+00
 SP   1 1.00       0.000000000000
      0.9983170000D-01  0.1000000000D+01  0.1000000000D+01
 D   1 1.00       0.000000000000
      0.5500000000D+00  0.1000000000D+01
 ****
      5 0
 S   6 1.00       0.000000000000
      0.1941330000D+05  0.1851598923D-02
      0.2909420000D+04  0.1420619174D-01
      0.6613640000D+03  0.6999945928D-01
      0.1857590000D+03  0.2400788603D+00
      0.5919430000D+02  0.4847617180D+00
      0.2003100000D+02  0.3351998050D+00
 SP   6 1.00       0.000000000000
      0.3394780000D+03 -0.2782170105D-02  0.4564616191D-02
      0.8101010000D+02 -0.3604990135D-01  0.3369357188D-01
      0.2587800000D+02 -0.1166310044D+00  0.1397548834D+00
      0.9452210000D+01  0.9683280364D-01  0.3393617168D+00
      0.3665660000D+01  0.6144180231D+00  0.4509206237D+00
      0.1467460000D+01  0.4037980152D+00  0.2385858009D+00
 SP   3 1.00       0.000000000000
      0.2156230000D+01 -0.2529241139D+00 -0.1776531273D-01
      0.7489970000D+00  0.3285184468D-01  0.2740581964D+00
      0.2831450000D+00  0.1081254762D+01  0.7854215630D+00
 SP   1 1.00       0.000000000000
      0.9983170000D-01  0.1000000000D+01  0.1000000000D+01
 D   1 1.00       0.000000000000
      0.5500000000D+00  0.1000000000D+01
 ****
      6 0
 S   6 1.00       0.000000000000
      0.5484671660D+04  0.1831074430D-02
      0.8252349460D+03  0.1395017220D-01
      0.1880469580D+03  0.6844507810D-01
      0.5296450000D+02  0.2327143360D+00
      0.1689757040D+02  0.4701928980D+00
      0.5799635340D+01  0.3585208530D+00
 SP   3 1.00       0.000000000000
      0.1553961625D+02 -0.1107775495D+00  0.7087426823D-01
      0.3599933586D+01 -0.1480262627D+00  0.3397528391D+00
      0.1013761750D+01  0.1130767015D+01  0.7271585773D+00
 SP   1 1.00       0.000000000000
      0.2700058226D+00  0.1000000000D+01  0.1000000000D+01
 D   1 1.00       0.000000000000
      0.8000000000D+00  0.1000000000D+01
 ****
      7 0
 S   3 1.00       0.000000000000
      0.1873113696D+02  0.3349460434D-01
      0.2825394365D+01  0.2347269535D+00
      0.6401216923D+00  0.8137573261D+00
 S   1 1.00       0.000000000000
      0.1612777588D+00  0.1000000000D+01
 P   1 1.00       0.000000000000
      0.1100000000D+01  0.1000000000D+01
 ****
      8 0
 S   6 1.00       0.000000000000
      0.5484671660D+04  0.1831074430D-02
      0.8252349460D+03  0.1395017220D-01
      0.1880469580D+03  0.6844507810D-01
      0.5296450000D+02  0.2327143360D+00
      0.1689757040D+02  0.4701928980D+00
      0.5799635340D+01  0.3585208530D+00
 SP   3 1.00       0.000000000000
      0.1553961625D+02 -0.1107775495D+00  0.7087426823D-01
      0.3599933586D+01 -0.1480262627D+00  0.3397528391D+00
      0.1013761750D+01  0.1130767015D+01  0.7271585773D+00
 SP   1 1.00       0.000000000000
      0.2700058226D+00  0.1000000000D+01  0.1000000000D+01
 D   1 1.00       0.000000000000
      0.8000000000D+00  0.1000000000D+01
 ****
      9 0
 S   3 1.00       0.000000000000
      0.1873113696D+02  0.3349460434D-01
      0.2825394365D+01  0.2347269535D+00
      0.6401216923D+00  0.8137573261D+00
 S   1 1.00       0.000000000000
      0.1612777588D+00  0.1000000000D+01
 P   1 1.00       0.000000000000
      0.1100000000D+01  0.1000000000D+01
 ****
     10 0
 S   6 1.00       0.000000000000
      0.5484671660D+04  0.1831074430D-02
      0.8252349460D+03  0.1395017220D-01
      0.1880469580D+03  0.6844507810D-01
      0.5296450000D+02  0.2327143360D+00
      0.1689757040D+02  0.4701928980D+00
      0.5799635340D+01  0.3585208530D+00
 SP   3 1.00       0.000000000000
      0.1553961625D+02 -0.1107775495D+00  0.7087426823D-01
      0.3599933586D+01 -0.1480262627D+00  0.3397528391D+00
      0.1013761750D+01  0.1130767015D+01  0.7271585773D+00
 SP   1 1.00       0.000000000000
      0.2700058226D+00  0.1000000000D+01  0.1000000000D+01
 D   1 1.00       0.000000000000
      0.8000000000D+00  0.1000000000D+01
 ****
     11 0
 S   3 1.00       0.000000000000
      0.1873113696D+02  0.3349460434D-01
      0.2825394365D+01  0.2347269535D+00
      0.6401216923D+00  0.8137573261D+00
 S   1 1.00       0.000000000000
      0.1612777588D+00  0.1000000000D+01
 P   1 1.00       0.000000000000
      0.1100000000D+01  0.1000000000D+01
 ****
     12 0
 S   6 1.00       0.000000000000
      0.5484671660D+04  0.1831074430D-02
      0.8252349460D+03  0.1395017220D-01
      0.1880469580D+03  0.6844507810D-01
      0.5296450000D+02  0.2327143360D+00
      0.1689757040D+02  0.4701928980D+00
      0.5799635340D+01  0.3585208530D+00
 SP   3 1.00       0.000000000000
      0.1553961625D+02 -0.1107775495D+00  0.7087426823D-01
      0.3599933586D+01 -0.1480262627D+00  0.3397528391D+00
      0.1013761750D+01  0.1130767015D+01  0.7271585773D+00
 SP   1 1.00       0.000000000000
      0.2700058226D+00  0.1000000000D+01  0.1000000000D+01
 D   1 1.00       0.000000000000
      0.8000000000D+00  0.1000000000D+01
 ****
     13 0
 S   3 1.00       0.000000000000
      0.1873113696D+02  0.3349460434D-01
      0.2825394365D+01  0.2347269535D+00
      0.6401216923D+00  0.8137573261D+00
 S   1 1.00       0.000000000000
      0.1612777588D+00  0.1000000000D+01
 P   1 1.00       0.000000000000
      0.1100000000D+01  0.1000000000D+01
 ****
     14 0
 S   6 1.00       0.000000000000
      0.5484671660D+04  0.1831074430D-02
      0.8252349460D+03  0.1395017220D-01
      0.1880469580D+03  0.6844507810D-01
      0.5296450000D+02  0.2327143360D+00
      0.1689757040D+02  0.4701928980D+00
      0.5799635340D+01  0.3585208530D+00
 SP   3 1.00       0.000000000000
      0.1553961625D+02 -0.1107775495D+00  0.7087426823D-01
      0.3599933586D+01 -0.1480262627D+00  0.3397528391D+00
      0.1013761750D+01  0.1130767015D+01  0.7271585773D+00
 SP   1 1.00       0.000000000000
      0.2700058226D+00  0.1000000000D+01  0.1000000000D+01
 D   1 1.00       0.000000000000
      0.8000000000D+00  0.1000000000D+01
 ****
     15 0
 S   6 1.00       0.000000000000
      0.5484671660D+04  0.1831074430D-02
      0.8252349460D+03  0.1395017220D-01
      0.1880469580D+03  0.6844507810D-01
      0.5296450000D+02  0.2327143360D+00
      0.1689757040D+02  0.4701928980D+00
      0.5799635340D+01  0.3585208530D+00
 SP   3 1.00       0.000000000000
      0.1553961625D+02 -0.1107775495D+00  0.7087426823D-01
      0.3599933586D+01 -0.1480262627D+00  0.3397528391D+00
      0.1013761750D+01  0.1130767015D+01  0.7271585773D+00
 SP   1 1.00       0.000000000000
      0.2700058226D+00  0.1000000000D+01  0.1000000000D+01
 D   1 1.00       0.000000000000
      0.8000000000D+00  0.1000000000D+01
 ****
     16 0
 S   6 1.00       0.000000000000
      0.3047524880D+04  0.1834737132D-02
      0.4573695180D+03  0.1403732281D-01
      0.1039486850D+03  0.6884262226D-01
      0.2921015530D+02  0.2321844432D+00
      0.9286662960D+01  0.4679413484D+00
      0.3163926960D+01  0.3623119853D+00
 SP   3 1.00       0.000000000000
      0.7868272350D+01 -0.1193324198D+00  0.6899906659D-01
      0.1881288540D+01 -0.1608541517D+00  0.3164239610D+00
      0.5442492580D+00  0.1143456438D+01  0.7443082909D+00
 SP   1 1.00       0.000000000000
      0.1687144782D+00  0.1000000000D+01  0.1000000000D+01
 D   1 1.00       0.000000000000
      0.8000000000D+00  0.1000000000D+01
 ****
     17 0
 S   6 1.00       0.000000000000
      0.3047524880D+04  0.1834737132D-02
      0.4573695180D+03  0.1403732281D-01
      0.1039486850D+03  0.6884262226D-01
      0.2921015530D+02  0.2321844432D+00
      0.9286662960D+01  0.4679413484D+00
      0.3163926960D+01  0.3623119853D+00
 SP   3 1.00       0.000000000000
      0.7868272350D+01 -0.1193324198D+00  0.6899906659D-01
      0.1881288540D+01 -0.1608541517D+00  0.3164239610D+00
      0.5442492580D+00  0.1143456438D+01  0.7443082909D+00
 SP   1 1.00       0.000000000000
      0.1687144782D+00  0.1000000000D+01  0.1000000000D+01
 D   1 1.00       0.000000000000
      0.8000000000D+00  0.1000000000D+01
 ****
     18 0
 S   3 1.00       0.000000000000
      0.1873113696D+02  0.3349460434D-01
      0.2825394365D+01  0.2347269535D+00
      0.6401216923D+00  0.8137573261D+00
 S   1 1.00       0.000000000000
      0.1612777588D+00  0.1000000000D+01
 P   1 1.00       0.000000000000
      0.1100000000D+01  0.1000000000D+01
 ****
     19 0
 S   3 1.00       0.000000000000
      0.1873113696D+02  0.3349460434D-01
      0.2825394365D+01  0.2347269535D+00
      0.6401216923D+00  0.8137573261D+00
 S   1 1.00       0.000000000000
      0.1612777588D+00  0.1000000000D+01
 P   1 1.00       0.000000000000
      0.1100000000D+01  0.1000000000D+01
 ****
     20 0
 S   6 1.00       0.000000000000
      0.3047524880D+04  0.1834737132D-02
      0.4573695180D+03  0.1403732281D-01
      0.1039486850D+03  0.6884262226D-01
      0.2921015530D+02  0.2321844432D+00
      0.9286662960D+01  0.4679413484D+00
      0.3163926960D+01  0.3623119853D+00
 SP   3 1.00       0.000000000000
      0.7868272350D+01 -0.1193324198D+00  0.6899906659D-01
      0.1881288540D+01 -0.1608541517D+00  0.3164239610D+00
      0.5442492580D+00  0.1143456438D+01  0.7443082909D+00
 SP   1 1.00       0.000000000000
      0.1687144782D+00  0.1000000000D+01  0.1000000000D+01
 D   1 1.00       0.000000000000
      0.8000000000D+00  0.1000000000D+01
 ****
     21 0
 S   3 1.00       0.000000000000
      0.1873113696D+02  0.3349460434D-01
      0.2825394365D+01  0.2347269535D+00
      0.6401216923D+00  0.8137573261D+00
 S   1 1.00       0.000000000000
      0.1612777588D+00  0.1000000000D+01
 P   1 1.00       0.000000000000
      0.1100000000D+01  0.1000000000D+01
 ****
     22 0
 S   3 1.00       0.000000000000
      0.1873113696D+02  0.3349460434D-01
      0.2825394365D+01  0.2347269535D+00
      0.6401216923D+00  0.8137573261D+00
 S   1 1.00       0.000000000000
      0.1612777588D+00  0.1000000000D+01
 P   1 1.00       0.000000000000
      0.1100000000D+01  0.1000000000D+01
 ****
     23 0
 S   3 1.00       0.000000000000
      0.1873113696D+02  0.3349460434D-01
      0.2825394365D+01  0.2347269535D+00
      0.6401216923D+00  0.8137573261D+00
 S   1 1.00       0.000000000000
      0.1612777588D+00  0.1000000000D+01
 P   1 1.00       0.000000000000
      0.1100000000D+01  0.1000000000D+01
 ****
     24 0
 S   3 1.00       0.000000000000
      0.1873113696D+02  0.3349460434D-01
      0.2825394365D+01  0.2347269535D+00
      0.6401216923D+00  0.8137573261D+00
 S   1 1.00       0.000000000000
      0.1612777588D+00  0.1000000000D+01
 P   1 1.00       0.000000000000
      0.1100000000D+01  0.1000000000D+01
 ****
     25 0
 S   6 1.00       0.000000000000
      0.4173511460D+04  0.1834772160D-02
      0.6274579110D+03  0.1399462700D-01
      0.1429020930D+03  0.6858655181D-01
      0.4023432930D+02  0.2322408730D+00
      0.1282021290D+02  0.4690699481D+00
      0.4390437010D+01  0.3604551991D+00
 SP   3 1.00       0.000000000000
      0.1162636186D+02 -0.1149611817D+00  0.6757974388D-01
      0.2716279807D+01 -0.1691174786D+00  0.3239072959D+00
      0.7722183966D+00  0.1145851947D+01  0.7408951398D+00
 SP   1 1.00       0.000000000000
      0.2120314975D+00  0.1000000000D+01  0.1000000000D+01
 D   1 1.00       0.000000000000
      0.8000000000D+00  0.1000000000D+01
 ****
     26 0
 S   3 1.00       0.000000000000
      0.1873113696D+02  0.3349460434D-01
      0.2825394365D+01  0.2347269535D+00
      0.6401216923D+00  0.8137573261D+00
 S   1 1.00       0.000000000000
      0.1612777588D+00  0.1000000000D+01
 P   1 1.00       0.000000000000
      0.1100000000D+01  0.1000000000D+01
 ****
     27 0
 S   3 1.00       0.000000000000
      0.1873113696D+02  0.3349460434D-01
      0.2825394365D+01  0.2347269535D+00
      0.6401216923D+00  0.8137573261D+00
 S   1 1.00       0.000000000000
      0.1612777588D+00  0.1000000000D+01
 P   1 1.00       0.000000000000
      0.1100000000D+01  0.1000000000D+01
 ****

   283 basis functions,   531 primitive gaussians,   283 cartesian basis functions
    66 alpha electrons       65 beta electrons
       nuclear repulsion energy      1388.1218734604 Hartrees.
 NAtoms=   27 NActive=   27 NUniq=   27 SFac= 1.00D+00 NAtFMM=   60 NAOKFM=F Big=F
 ExpMin= 9.98D-02 ExpMax= 1.94D+04 ExpMxC= 2.91D+03 IAcc=3 IRadAn=         5 AccDes= 0.00D+00
 Harris functional with IExCor=  402 and IRadAn=       5 diagonalized for initial guess.
 HarFok:  IExCor=  402 AccDes= 0.00D+00 IRadAn=         5 IDoV= 1 UseB2=F ITyADJ=14
 ICtDFT=  3500011 ScaDFX=  1.000000  1.000000  1.000000  1.000000
 FoFCou: FMM=F IPFlag=           0 FMFlag=      100000 FMFlg1=           0
         NFxFlg=           0 DoJE=T BraDBF=F KetDBF=T FulRan=T
         wScrn=  0.000000 ICntrl=       500 IOpCl=  0 I1Cent=   200000004 NGrid=           0
         NMat0=    1 NMatS0=      1 NMatT0=    0 NMatD0=    1 NMtDS0=    0 NMtDT0=    0
 Petite list used in FoFCou.
 Initial guess <Sx>= 0.0000 <Sy>= 0.0000 <Sz>= 0.5000 <S**2>= 0.7500 S= 0.5000
 Integral accuracy reduced to 1.0D-05 until final iterations.
 Initial convergence to 1.0D-05 achieved.  Increase integral accuracy.
 SCF Done:  E(UB3LYP) =  -1424.36541641     A.U. after   23 cycles
            NFock= 23  Conv=0.59D-08     -V/T= 2.0059
 <Sx>= 0.0000 <Sy>= 0.0000 <Sz>= 0.5000 <S**2>= 0.7513 S= 0.5007
 <L.S>= 0.000000000000E+00
 Annihilation of the first spin contaminant:
 S**2 before annihilation     0.7513,   after     0.7500

 **********************************************************************

            Population analysis using the SCF density.

 **********************************************************************

 Orbital symmetries:
 Alpha Orbitals:
       Occupied  (A) (A) (A) (A) (A) (A) (A) (A) (A) (A) (A) (A)
                 (A) (A) (A) (A) (A) (A) (A) (A) (A) (A) (A) (A)
                 (A) (A) (A) (A) (A) (A) (A) (A) (A) (A) (A) (A)
                 (A) (A) (A) (A) (A) (A) (A) (A) (A) (A) (A) (A)
                 (A) (A) (A) (A) (A) (A) (A) (A) (A) (A) (A) (A)
                 (A) (A) (A) (A) (A) (A)
       Virtual   (A) (A) (A) (A) (A) (A) (A) (A) (A) (A) (A) (A)
                 (A) (A) (A) (A) (A) (A) (A) (A) (A) (A) (A) (A)
                 (A) (A) (A) (A) (A) (A) (A) (A) (A) (A) (A) (A)
                 (A) (A) (A) (A) (A) (A) (A) (A) (A) (A) (A) (A)
                 (A) (A) (A) (A) (A) (A) (A) (A) (A) (A) (A) (A)
                 (A) (A) (A) (A) (A) (A) (A) (A) (A) (A) (A) (A)
                 (A) (A) (A) (A) (A) (A) (A) (A) (A) (A) (A) (A)
                 (A) (A) (A) (A) (A) (A) (A) (A) (A) (A) (A) (A)
                 (A) (A) (A) (A) (A) (A) (A) (A) (A) (A) (A) (A)
                 (A) (A) (A) (A) (A) (A) (A) (A) (A) (A) (A) (A)
                 (A) (A) (A) (A) (A) (A) (A) (A) (A) (A) (A) (A)
                 (A) (A) (A) (A) (A) (A) (A) (A) (A) (A) (A) (A)
                 (A) (A) (A) (A) (A) (A) (A) (A) (A) (A) (A) (A)
                 (A) (A) (A) (A) (A) (A) (A) (A) (A) (A) (A) (A)
                 (A) (A) (A) (A) (A) (A) (A) (A) (A) (A) (A) (A)
                 (A) (A) (A) (A) (A) (A) (A) (A) (A) (A) (A) (A)
                 (A) (A) (A) (A) (A) (A) (A) (A) (A) (A) (A) (A)
                 (A) (A) (A) (A) (A) (A) (A) (A) (A) (A) (A) (A)
                 (A)
 Beta  Orbitals:
       Occupied  (A) (A) (A) (A) (A) (A) (A) (A) (A) (A) (A) (A)
                 (A) (A) (A) (A) (A) (A) (A) (A) (A) (A) (A) (A)
                 (A) (A) (A) (A) (A) (A) (A) (A) (A) (A) (A) (A)
                 (A) (A) (A) (A) (A) (A) (A) (A) (A) (A) (A) (A)
                 (A) (A) (A) (A) (A) (A) (A) (A) (A) (A) (A) (A)
                 (A) (A) (A) (A) (A)
       Virtual   (A) (A) (A) (A) (A) (A) (A) (A) (A) (A) (A) (A)
                 (A) (A) (A) (A) (A) (A) (A) (A) (A) (A) (A) (A)
                 (A) (A) (A) (A) (A) (A) (A) (A) (A) (A) (A) (A)
                 (A) (A) (A) (A) (A) (A) (A) (A) (A) (A) (A) (A)
                 (A) (A) (A) (A) (A) (A) (A) (A) (A) (A) (A) (A)
                 (A) (A) (A) (A) (A) (A) (A) (A) (A) (A) (A) (A)
                 (A) (A) (A) (A) (A) (A) (A) (A) (A) (A) (A) (A)
                 (A) (A) (A) (A) (A) (A) (A) (A) (A) (A) (A) (A)
                 (A) (A) (A) (A) (A) (A) (A) (A) (A) (A) (A) (A)
                 (A) (A) (A) (A) (A) (A) (A) (A) (A) (A) (A) (A)
                 (A) (A) (A) (A) (A) (A) (A) (A) (A) (A) (A) (A)
                 (A) (A) (A) (A) (A) (A) (A) (A) (A) (A) (A) (A)
                 (A) (A) (A) (A) (A) (A) (A) (A) (A) (A) (A) (A)
                 (A) (A) (A) (A) (A) (A) (A) (A) (A) (A) (A) (A)
                 (A) (A) (A) (A) (A) (A) (A) (A) (A) (A) (A) (A)
                 (A) (A) (A) (A) (A) (A) (A) (A) (A) (A) (A) (A)
                 (A) (A) (A) (A) (A) (A) (A) (A) (A) (A) (A) (A)
                 (A) (A) (A) (A) (A) (A) (A) (A) (A) (A) (A) (A)
                 (A) (A)
 The electronic state is 2-A.
 Alpha  occ. eigenvalues --  -77.05924 -77.05716 -19.03327 -19.02345 -19.02262
 Alpha  occ. eigenvalues --  -19.02062 -19.01528 -18.97570 -18.95501 -14.21383
 Alpha  occ. eigenvalues --  -10.10963 -10.09901 -10.06167 -10.05210  -6.50972
 Alpha  occ. eigenvalues --   -6.50698  -4.67400  -4.67277  -4.67139  -4.67046
 Alpha  occ. eigenvalues --   -4.66971  -4.66781  -0.92883  -0.91594  -0.88863
 Alpha  occ. eigenvalues --   -0.87853  -0.87364  -0.82260  -0.80792  -0.77801
 Alpha  occ. eigenvalues --   -0.66154  -0.59065  -0.51901  -0.48373  -0.47217
 Alpha  occ. eigenvalues --   -0.44204  -0.41339  -0.38794  -0.38328  -0.37230
 Alpha  occ. eigenvalues --   -0.35300  -0.34488  -0.32086  -0.31339  -0.30092
 Alpha  occ. eigenvalues --   -0.28674  -0.27946  -0.26709  -0.26167  -0.24823
 Alpha  occ. eigenvalues --   -0.24192  -0.23030  -0.22487  -0.22209  -0.21306
 Alpha  occ. eigenvalues --   -0.20712  -0.19511  -0.18890  -0.18101  -0.17098
 Alpha  occ. eigenvalues --   -0.15649  -0.14580  -0.14181  -0.13374  -0.10864
 Alpha  occ. eigenvalues --    0.12994
 Alpha virt. eigenvalues --    0.17475   0.17623   0.20801   0.21516   0.22291
 Alpha virt. eigenvalues --    0.23292   0.23900   0.25921   0.26185   0.26833
 Alpha virt. eigenvalues --    0.27631   0.28248   0.28896   0.30239   0.30327
 Alpha virt. eigenvalues --    0.30821   0.31651   0.32993   0.34463   0.35466
 Alpha virt. eigenvalues --    0.37077   0.37883   0.39982   0.41294   0.42540
 Alpha virt. eigenvalues --    0.46160   0.48018   0.52148   0.53619   0.55210
 Alpha virt. eigenvalues --    0.56055   0.57336   0.61457   0.64328   0.65529
 Alpha virt. eigenvalues --    0.68478   0.69057   0.71311   0.72720   0.73631
 Alpha virt. eigenvalues --    0.74009   0.78343   0.80022   0.82568   0.83667
 Alpha virt. eigenvalues --    0.84330   0.86049   0.89059   0.89701   0.90107
 Alpha virt. eigenvalues --    0.91731   0.92597   0.93540   0.95286   0.95327
 Alpha virt. eigenvalues --    0.96438   0.98001   0.98475   0.99437   1.00710
 Alpha virt. eigenvalues --    1.01311   1.02745   1.02960   1.04064   1.04524
 Alpha virt. eigenvalues --    1.06476   1.07710   1.09009   1.10041   1.11133
 Alpha virt. eigenvalues --    1.12348   1.13928   1.14521   1.15628   1.16382
 Alpha virt. eigenvalues --    1.17788   1.18343   1.19598   1.19996   1.21473
 Alpha virt. eigenvalues --    1.21638   1.24912   1.26569   1.29324   1.32449
 Alpha virt. eigenvalues --    1.33512   1.34059   1.35338   1.36104   1.37163
 Alpha virt. eigenvalues --    1.39871   1.40974   1.43969   1.45095   1.46658
 Alpha virt. eigenvalues --    1.48183   1.51080   1.54275   1.57023   1.59323
 Alpha virt. eigenvalues --    1.62838   1.66840   1.68676   1.69286   1.70257
 Alpha virt. eigenvalues --    1.73174   1.73925   1.74462   1.74872   1.76091
 Alpha virt. eigenvalues --    1.80246   1.81088   1.82162   1.82682   1.84208
 Alpha virt. eigenvalues --    1.86944   1.88643   1.90708   1.92936   1.93446
 Alpha virt. eigenvalues --    1.96195   1.96811   1.97558   1.99291   2.00580
 Alpha virt. eigenvalues --    2.00912   2.01780   2.02885   2.03945   2.05621
 Alpha virt. eigenvalues --    2.06933   2.09565   2.13066   2.17375   2.18268
 Alpha virt. eigenvalues --    2.19616   2.20014   2.21206   2.22836   2.24438
 Alpha virt. eigenvalues --    2.25898   2.29734   2.30464   2.32066   2.33954
 Alpha virt. eigenvalues --    2.34705   2.37509   2.37846   2.39654   2.42054
 Alpha virt. eigenvalues --    2.46305   2.47973   2.49157   2.50303   2.52255
 Alpha virt. eigenvalues --    2.53640   2.54772   2.57162   2.60618   2.62045
 Alpha virt. eigenvalues --    2.62995   2.64843   2.66698   2.66982   2.73278
 Alpha virt. eigenvalues --    2.74198   2.76387   2.76651   2.77289   2.78774
 Alpha virt. eigenvalues --    2.79213   2.80298   2.81952   2.82928   2.83895
 Alpha virt. eigenvalues --    2.84661   2.87997   2.90349   2.91434   2.93257
 Alpha virt. eigenvalues --    2.96087   2.97234   2.98712   3.02086   3.02387
 Alpha virt. eigenvalues --    3.02856   3.05891   3.07164   3.09523   3.20142
 Alpha virt. eigenvalues --    3.35104   3.39788   3.41486   3.47205   3.49779
 Alpha virt. eigenvalues --    3.50197   3.51405   3.55867   3.59766   3.60124
 Alpha virt. eigenvalues --    3.61508   3.65386   3.68512   3.70740   3.71416
 Alpha virt. eigenvalues --    3.95792   4.08074   4.12206   4.17115   4.21071
 Alpha virt. eigenvalues --    4.25628   4.35088   4.43410   4.46424   4.56576
 Alpha virt. eigenvalues --    4.69061   4.86381
  Beta  occ. eigenvalues --  -77.05860 -77.05681 -19.03123 -19.02300 -19.02049
  Beta  occ. eigenvalues --  -19.01705 -19.01411 -18.97541 -18.95362 -14.21383
  Beta  occ. eigenvalues --  -10.10828 -10.09893 -10.06148 -10.05200  -6.50882
  Beta  occ. eigenvalues --   -6.50642  -4.67344  -4.67183  -4.67094  -4.66963
  Beta  occ. eigenvalues --   -4.66926  -4.66749  -0.92458  -0.91156  -0.88577
  Beta  occ. eigenvalues --   -0.87500  -0.86766  -0.82108  -0.80394  -0.77796
  Beta  occ. eigenvalues --   -0.66050  -0.58844  -0.51667  -0.47938  -0.47021
  Beta  occ. eigenvalues --   -0.44037  -0.41131  -0.38584  -0.38170  -0.36854
  Beta  occ. eigenvalues --   -0.35153  -0.34331  -0.32026  -0.31123  -0.29903
  Beta  occ. eigenvalues --   -0.28536  -0.27800  -0.26579  -0.26069  -0.24683
  Beta  occ. eigenvalues --   -0.23926  -0.22888  -0.22399  -0.21995  -0.21211
  Beta  occ. eigenvalues --   -0.20503  -0.19298  -0.18694  -0.17854  -0.16923
  Beta  occ. eigenvalues --   -0.15526  -0.14411  -0.14025  -0.13361  -0.10667
  Beta virt. eigenvalues --    0.17565   0.17761   0.19188   0.21535   0.22538
  Beta virt. eigenvalues --    0.22867   0.23379   0.24825   0.26474   0.26521
  Beta virt. eigenvalues --    0.27425   0.28327   0.28806   0.29212   0.30661
  Beta virt. eigenvalues --    0.30726   0.31324   0.31826   0.33151   0.34781
  Beta virt. eigenvalues --    0.35976   0.37270   0.38198   0.40127   0.41778
  Beta virt. eigenvalues --    0.42655   0.46552   0.48350   0.52428   0.53970
  Beta virt. eigenvalues --    0.55407   0.56472   0.57625   0.61770   0.64422
  Beta virt. eigenvalues --    0.65669   0.68613   0.69184   0.71562   0.72955
  Beta virt. eigenvalues --    0.73789   0.74164   0.78415   0.80182   0.82581
  Beta virt. eigenvalues --    0.83843   0.84469   0.86189   0.89373   0.90181
  Beta virt. eigenvalues --    0.90637   0.92063   0.92747   0.93833   0.95443
  Beta virt. eigenvalues --    0.95531   0.96510   0.98084   0.98643   0.99643
  Beta virt. eigenvalues --    1.00870   1.01568   1.02949   1.03121   1.04306
  Beta virt. eigenvalues --    1.05098   1.06861   1.07898   1.09205   1.10201
  Beta virt. eigenvalues --    1.11424   1.12536   1.14208   1.14768   1.15770
  Beta virt. eigenvalues --    1.16570   1.17992   1.18515   1.19757   1.20223
  Beta virt. eigenvalues --    1.21734   1.21865   1.25106   1.26729   1.29521
  Beta virt. eigenvalues --    1.32643   1.33759   1.34213   1.35603   1.36321
  Beta virt. eigenvalues --    1.37401   1.39982   1.41106   1.44069   1.45261
  Beta virt. eigenvalues --    1.46743   1.48333   1.51178   1.54361   1.57142
  Beta virt. eigenvalues --    1.59461   1.62968   1.66976   1.68830   1.69433
  Beta virt. eigenvalues --    1.70360   1.73338   1.74079   1.74593   1.75039
  Beta virt. eigenvalues --    1.76243   1.80348   1.81167   1.82360   1.82767
  Beta virt. eigenvalues --    1.84239   1.87072   1.88791   1.90850   1.93021
  Beta virt. eigenvalues --    1.93535   1.96309   1.96886   1.97622   1.99360
  Beta virt. eigenvalues --    2.00641   2.01009   2.01920   2.03042   2.04031
  Beta virt. eigenvalues --    2.05789   2.07011   2.09638   2.13264   2.17455
  Beta virt. eigenvalues --    2.18375   2.19787   2.20097   2.21392   2.22974
  Beta virt. eigenvalues --    2.24608   2.25995   2.29879   2.30626   2.32170
  Beta virt. eigenvalues --    2.34004   2.34843   2.37532   2.38005   2.39697
  Beta virt. eigenvalues --    2.42077   2.46701   2.48796   2.49637   2.50389
  Beta virt. eigenvalues --    2.52376   2.53796   2.55005   2.57368   2.60810
  Beta virt. eigenvalues --    2.62181   2.63155   2.65083   2.66894   2.67027
  Beta virt. eigenvalues --    2.73567   2.74281   2.76695   2.77082   2.77922
  Beta virt. eigenvalues --    2.79245   2.79799   2.80613   2.82330   2.83373
  Beta virt. eigenvalues --    2.84434   2.84916   2.88129   2.90447   2.91969
  Beta virt. eigenvalues --    2.93548   2.96192   2.97285   2.98825   3.02139
  Beta virt. eigenvalues --    3.02518   3.02934   3.05914   3.07202   3.09750
  Beta virt. eigenvalues --    3.20471   3.35119   3.39794   3.41538   3.47242
  Beta virt. eigenvalues --    3.50446   3.51080   3.51506   3.56413   3.59865
  Beta virt. eigenvalues --    3.60466   3.61868   3.65420   3.68735   3.70773
  Beta virt. eigenvalues --    3.71692   3.96012   4.08193   4.12315   4.17284
  Beta virt. eigenvalues --    4.21322   4.25711   4.35253   4.43550   4.46613
  Beta virt. eigenvalues --    4.56754   4.69139   4.86435
     Alpha Molecular Orbital Coefficients:
                           1         2         3         4         5
                           O         O         O         O         O
     Eigenvalues --   -77.05924 -77.05716 -19.03327 -19.02345 -19.02262
   1 1   C  1S         -0.00003  -0.00003  -0.00003  -0.00000  -0.00002
   2        2S         -0.00001  -0.00001  -0.00016  -0.00006  -0.00016
   3        2PX        -0.00002  -0.00002  -0.00010  -0.00002  -0.00003
   4        2PY        -0.00003   0.00004   0.00004   0.00002   0.00007
   5        2PZ         0.00000   0.00000  -0.00004  -0.00001   0.00001
   6        3S          0.00082   0.00068   0.00143   0.00023   0.00112
   7        3PX        -0.00021   0.00007   0.00046   0.00001   0.00013
   8        3PY        -0.00041   0.00047   0.00043   0.00045  -0.00098
   9        3PZ         0.00003  -0.00005   0.00117   0.00002  -0.00039
  10        4XX        -0.00010  -0.00008   0.00001  -0.00003   0.00003
  11        4YY        -0.00009  -0.00014   0.00001   0.00006  -0.00002
  12        4ZZ        -0.00006  -0.00005  -0.00007   0.00003   0.00003
  13        4XY        -0.00004   0.00000  -0.00004  -0.00002   0.00001
  14        4XZ         0.00003  -0.00000   0.00001  -0.00001  -0.00000
  15        4YZ         0.00002  -0.00003   0.00002   0.00002  -0.00002
  16 2   O  1S          0.00000   0.00001  -0.00002   0.00000   0.00002
  17        2S          0.00001   0.00003  -0.00025   0.00006   0.00001
  18        2PX         0.00001   0.00001   0.00001   0.00000   0.00001
  19        2PY        -0.00000  -0.00000  -0.00002   0.00002   0.00003
  20        2PZ        -0.00001  -0.00001  -0.00002   0.00001   0.00001
  21        3S         -0.00019  -0.00027   0.00127  -0.00023  -0.00024
  22        3PX         0.00000  -0.00006  -0.00022  -0.00001  -0.00014
  23        3PY         0.00009  -0.00009   0.00016  -0.00009  -0.00006
  24        3PZ        -0.00014  -0.00016   0.00025  -0.00011  -0.00026
  25        4XX         0.00003  -0.00000  -0.00014   0.00004   0.00004
  26        4YY        -0.00002   0.00002  -0.00014   0.00006   0.00000
  27        4ZZ        -0.00001  -0.00000  -0.00013   0.00003  -0.00005
  28        4XY         0.00001  -0.00002  -0.00004  -0.00000   0.00002
  29        4XZ         0.00001  -0.00001  -0.00003   0.00000   0.00000
  30        4YZ         0.00001  -0.00001   0.00001  -0.00002   0.00001
  31 3   H  1S         -0.00002  -0.00001  -0.00002   0.00002   0.00001
  32        2S         -0.00018  -0.00018  -0.00012  -0.00012  -0.00011
  33        3PX         0.00001  -0.00000  -0.00003  -0.00000  -0.00002
  34        3PY         0.00001  -0.00002   0.00001   0.00001   0.00002
  35        3PZ        -0.00004  -0.00004  -0.00001  -0.00001  -0.00000
  36 4   P  1S          0.99625   0.00093  -0.00000  -0.00000   0.00001
  37        2S          0.01418   0.00000  -0.00003  -0.00004  -0.00002
  38        2PX         0.00000   0.00001   0.00001   0.00001   0.00005
  39        2PY         0.00000   0.00000  -0.00001  -0.00000  -0.00001
  40        2PZ        -0.00001  -0.00000   0.00003  -0.00001   0.00005
  41        3S         -0.02724   0.00001  -0.00028  -0.00030   0.00025
  42        3PX        -0.00012  -0.00009  -0.00005  -0.00009  -0.00009
  43        3PY        -0.00009  -0.00005   0.00007  -0.00002   0.00007
  44        3PZ         0.00005   0.00003  -0.00021   0.00010  -0.00017
  45        4S          0.00286   0.00020   0.00076   0.00137  -0.00300
  46        4PX         0.00018   0.00009   0.00003   0.00008   0.00066
  47        4PY         0.00023  -0.00004   0.00027   0.00082  -0.00015
  48        4PZ         0.00011  -0.00004  -0.00015   0.00011   0.00178
  49        5XX         0.00944  -0.00002  -0.00000   0.00002   0.00009
  50        5YY         0.00944  -0.00005   0.00012   0.00002  -0.00003
  51        5ZZ         0.00949  -0.00000   0.00005   0.00008   0.00008
  52        5XY        -0.00002  -0.00003   0.00000   0.00001  -0.00005
  53        5XZ         0.00001   0.00001   0.00001  -0.00000   0.00023
  54        5YZ         0.00002   0.00002  -0.00004   0.00002  -0.00010
  55 5   P  1S         -0.00093   0.99625   0.00001   0.00001  -0.00000
  56        2S         -0.00004   0.01417   0.00003  -0.00000  -0.00004
  57        2PX         0.00000  -0.00003   0.00006   0.00001   0.00001
  58        2PY        -0.00001  -0.00002   0.00001   0.00002   0.00000
  59        2PZ        -0.00001   0.00001   0.00004  -0.00006   0.00000
  60        3S          0.00001  -0.02724   0.00025   0.00043  -0.00022
  61        3PX        -0.00001  -0.00002  -0.00008  -0.00003  -0.00003
  62        3PY         0.00010   0.00014  -0.00017  -0.00019   0.00000
  63        3PZ         0.00005   0.00006  -0.00011   0.00020   0.00001
  64        4S          0.00030   0.00300  -0.00353  -0.00352   0.00134
  65        4PX        -0.00007   0.00000   0.00177   0.00035  -0.00049
  66        4PY        -0.00018  -0.00029   0.00168   0.00060  -0.00065
  67        4PZ         0.00003   0.00002   0.00017  -0.00153   0.00002
  68        5XX        -0.00004   0.00946   0.00027  -0.00009   0.00002
  69        5YY        -0.00010   0.00940   0.00004  -0.00008   0.00002
  70        5ZZ        -0.00003   0.00947   0.00004   0.00029   0.00002
  71        5XY        -0.00002   0.00001  -0.00007  -0.00008  -0.00000
  72        5XZ        -0.00001   0.00000   0.00019  -0.00008   0.00002
  73        5YZ        -0.00001  -0.00001   0.00000  -0.00002  -0.00000
  74 6   O  1S         -0.00001   0.00001  -0.00010  -0.00085   0.99268
  75        2S         -0.00006   0.00006  -0.00011   0.00012   0.02576
  76        2PX        -0.00006   0.00002   0.00005   0.00001   0.00024
  77        2PY         0.00000   0.00001  -0.00004   0.00001   0.00066
  78        2PZ        -0.00007   0.00001   0.00002   0.00003   0.00046
  79        3S          0.00082  -0.00024   0.00055  -0.00068   0.01298
  80        3PX         0.00022  -0.00010  -0.00017  -0.00012   0.00040
  81        3PY        -0.00000  -0.00003   0.00034  -0.00010  -0.00012
  82        3PZ         0.00026  -0.00005  -0.00011  -0.00017   0.00017
  83        4XX        -0.00016   0.00004  -0.00009   0.00010  -0.00828
  84        4YY        -0.00001   0.00004  -0.00002   0.00010  -0.00824
  85        4ZZ        -0.00014   0.00006  -0.00007   0.00009  -0.00830
  86        4XY         0.00003  -0.00001   0.00003  -0.00000   0.00001
  87        4XZ        -0.00014  -0.00002  -0.00003  -0.00001  -0.00004
  88        4YZ         0.00004  -0.00000  -0.00000  -0.00001   0.00001
  89 7   H  1S         -0.00006   0.00002  -0.00006   0.00005   0.00036
  90        2S         -0.00019  -0.00003  -0.00095  -0.00003  -0.00122
  91        3PX         0.00002  -0.00001  -0.00015  -0.00000  -0.00007
  92        3PY        -0.00001  -0.00000  -0.00011  -0.00000   0.00009
  93        3PZ         0.00001  -0.00001  -0.00001  -0.00000  -0.00001
  94 8   O  1S         -0.00002   0.00000   0.00001   0.00016   0.00101
  95        2S         -0.00009   0.00001   0.00000  -0.00002  -0.00015
  96        2PX         0.00003  -0.00000  -0.00000   0.00001  -0.00000
  97        2PY        -0.00008  -0.00000  -0.00001  -0.00000   0.00002
  98        2PZ        -0.00005  -0.00000  -0.00000   0.00000   0.00003
  99        3S          0.00092  -0.00007  -0.00003   0.00015   0.00119
 100        3PX        -0.00013   0.00001   0.00002  -0.00003  -0.00007
 101        3PY         0.00026  -0.00001  -0.00001   0.00001   0.00023
 102        3PZ         0.00025   0.00000   0.00000  -0.00004  -0.00019
 103        4XX        -0.00006   0.00000  -0.00000  -0.00002  -0.00017
 104        4YY        -0.00027   0.00001  -0.00001  -0.00003  -0.00016
 105        4ZZ        -0.00000  -0.00000  -0.00001  -0.00004  -0.00015
 106        4XY         0.00004   0.00000   0.00001   0.00000   0.00006
 107        4XZ         0.00000  -0.00000   0.00000  -0.00000  -0.00006
 108        4YZ        -0.00010   0.00000   0.00001   0.00001   0.00003
 109 9   H  1S         -0.00011   0.00001   0.00001   0.00001   0.00002
 110        2S         -0.00021  -0.00002   0.00002   0.00008   0.00001
 111        3PX        -0.00000  -0.00000  -0.00000   0.00000   0.00001
 112        3PY         0.00000  -0.00000   0.00001   0.00001   0.00001
 113        3PZ         0.00002  -0.00000  -0.00001  -0.00001  -0.00003
 114 10  O  1S          0.00001   0.00000  -0.00016   0.99265   0.00092
 115        2S          0.00007  -0.00001  -0.00021   0.02564   0.00017
 116        2PX         0.00000  -0.00001   0.00002  -0.00028  -0.00001
 117        2PY        -0.00001   0.00000   0.00002  -0.00057  -0.00001
 118        2PZ        -0.00002   0.00010   0.00001  -0.00046  -0.00002
 119        3S         -0.00025   0.00055   0.00120   0.01349  -0.00070
 120        3PX        -0.00000  -0.00001  -0.00014   0.00000   0.00006
 121        3PY         0.00006  -0.00003  -0.00017  -0.00015   0.00009
 122        3PZ         0.00013  -0.00030  -0.00039  -0.00038   0.00018
 123        4XX         0.00005   0.00001  -0.00013  -0.00833   0.00009
 124        4YY         0.00003   0.00004  -0.00008  -0.00833   0.00009
 125        4ZZ         0.00003  -0.00023  -0.00007  -0.00840   0.00008
 126        4XY        -0.00001   0.00002   0.00000   0.00000  -0.00000
 127        4XZ        -0.00001   0.00005  -0.00001   0.00002  -0.00001
 128        4YZ        -0.00002  -0.00001   0.00002  -0.00000  -0.00001
 129 11  H  1S          0.00001  -0.00004  -0.00009   0.00036   0.00003
 130        2S         -0.00019  -0.00020   0.00032  -0.00159  -0.00008
 131        3PX         0.00000   0.00000  -0.00002  -0.00003  -0.00000
 132        3PY         0.00001  -0.00000   0.00000  -0.00001   0.00000
 133        3PZ         0.00001  -0.00000  -0.00005   0.00006   0.00000
 134 12  O  1S          0.00001  -0.00001   0.99265   0.00010   0.00009
 135        2S          0.00006  -0.00002   0.02566  -0.00010   0.00004
 136        2PX         0.00001  -0.00005   0.00036   0.00001   0.00004
 137        2PY        -0.00000  -0.00002   0.00078  -0.00001   0.00001
 138        2PZ         0.00000  -0.00002   0.00008  -0.00003   0.00002
 139        3S         -0.00028   0.00066   0.01323   0.00061  -0.00029
 140        3PX        -0.00004   0.00028   0.00029   0.00012  -0.00027
 141        3PY         0.00006   0.00020  -0.00080  -0.00001  -0.00012
 142        3PZ        -0.00005   0.00012   0.00035   0.00030  -0.00015
 143        4XX         0.00004  -0.00020  -0.00840  -0.00003   0.00003
 144        4YY         0.00000   0.00004  -0.00844  -0.00003   0.00005
 145        4ZZ         0.00003  -0.00008  -0.00837  -0.00006   0.00000
 146        4XY         0.00001   0.00004   0.00001  -0.00001   0.00002
 147        4XZ         0.00000  -0.00010  -0.00001   0.00003  -0.00001
 148        4YZ         0.00001  -0.00000   0.00002  -0.00000   0.00000
 149 13  H  1S          0.00001  -0.00012   0.00053  -0.00005   0.00001
 150        2S          0.00001  -0.00020  -0.00096   0.00012  -0.00001
 151        3PX         0.00000   0.00001  -0.00003   0.00001   0.00003
 152        3PY        -0.00001   0.00002  -0.00001  -0.00000   0.00001
 153        3PZ         0.00001   0.00000  -0.00001   0.00001   0.00001
 154 14  O  1S         -0.00000   0.00000  -0.00001  -0.00003   0.00000
 155        2S         -0.00001  -0.00008   0.00011  -0.00011  -0.00003
 156        2PX         0.00000   0.00014  -0.00001  -0.00002  -0.00000
 157        2PY        -0.00000   0.00013   0.00001  -0.00001  -0.00002
 158        2PZ         0.00000  -0.00006   0.00004  -0.00004  -0.00001
 159        3S          0.00006   0.00064  -0.00056   0.00065   0.00016
 160        3PX        -0.00001  -0.00032  -0.00014  -0.00014   0.00002
 161        3PY         0.00001  -0.00025  -0.00016  -0.00015   0.00007
 162        3PZ         0.00000   0.00013  -0.00015   0.00034   0.00003
 163        4XX        -0.00001  -0.00006   0.00010  -0.00002  -0.00003
 164        4YY        -0.00001  -0.00008   0.00013  -0.00002  -0.00002
 165        4ZZ        -0.00001   0.00001   0.00010  -0.00008  -0.00002
 166        4XY         0.00001  -0.00013   0.00003   0.00000  -0.00000
 167        4XZ        -0.00000   0.00005  -0.00002  -0.00002  -0.00000
 168        4YZ        -0.00000   0.00005   0.00002  -0.00004  -0.00000
 169 15  O  1S          0.00001   0.00001  -0.00001  -0.00001  -0.00004
 170        2S         -0.00003   0.00005  -0.00007   0.00005   0.00003
 171        2PX        -0.00003   0.00001   0.00000  -0.00000   0.00004
 172        2PY         0.00003   0.00000  -0.00003  -0.00001  -0.00001
 173        2PZ         0.00017  -0.00001   0.00003  -0.00004  -0.00000
 174        3S          0.00041  -0.00017   0.00023  -0.00030  -0.00014
 175        3PX         0.00004  -0.00005   0.00002   0.00006  -0.00021
 176        3PY        -0.00009  -0.00001   0.00008   0.00020   0.00003
 177        3PZ        -0.00034   0.00009  -0.00015   0.00032  -0.00023
 178        4XX         0.00004   0.00002  -0.00008   0.00003   0.00002
 179        4YY         0.00006   0.00002  -0.00004   0.00008   0.00005
 180        4ZZ        -0.00018   0.00001  -0.00002  -0.00002   0.00010
 181        4XY         0.00002  -0.00001   0.00000   0.00002   0.00002
 182        4XZ         0.00007   0.00001  -0.00002   0.00001   0.00001
 183        4YZ        -0.00004   0.00001  -0.00002   0.00002   0.00001
 184 16  C  1S         -0.00001  -0.00002   0.00001  -0.00002   0.00002
 185        2S          0.00000  -0.00005   0.00008  -0.00010   0.00008
 186        2PX         0.00003   0.00003   0.00001  -0.00000  -0.00003
 187        2PY         0.00001  -0.00004  -0.00002  -0.00007  -0.00001
 188        2PZ         0.00000   0.00002   0.00002   0.00001   0.00002
 189        3S         -0.00020   0.00034  -0.00083   0.00041  -0.00060
 190        3PX         0.00012   0.00019   0.00051  -0.00001   0.00057
 191        3PY        -0.00019   0.00003  -0.00021   0.00050   0.00009
 192        3PZ         0.00021  -0.00004  -0.00011  -0.00005   0.00033
 193        4XX        -0.00005  -0.00004  -0.00002  -0.00003   0.00000
 194        4YY        -0.00000  -0.00007  -0.00000  -0.00006   0.00003
 195        4ZZ        -0.00002  -0.00004   0.00001  -0.00004   0.00001
 196        4XY         0.00001   0.00002   0.00003  -0.00001   0.00001
 197        4XZ        -0.00001  -0.00000  -0.00000  -0.00000  -0.00004
 198        4YZ        -0.00001   0.00001   0.00001   0.00000  -0.00000
 199 17  C  1S         -0.00001   0.00001  -0.00000   0.00001   0.00000
 200        2S         -0.00004   0.00007  -0.00001   0.00006   0.00002
 201        2PX         0.00002  -0.00002  -0.00001   0.00004   0.00001
 202        2PY         0.00000   0.00000  -0.00001  -0.00001   0.00000
 203        2PZ         0.00000  -0.00002  -0.00001  -0.00002   0.00000
 204        3S          0.00023  -0.00027   0.00012  -0.00056  -0.00019
 205        3PX        -0.00019   0.00035   0.00011   0.00004  -0.00002
 206        3PY        -0.00003   0.00002   0.00014  -0.00010   0.00000
 207        3PZ        -0.00002   0.00007   0.00014   0.00003  -0.00013
 208        4XX        -0.00000  -0.00001  -0.00000  -0.00001  -0.00000
 209        4YY        -0.00002   0.00001   0.00001   0.00000   0.00000
 210        4ZZ        -0.00002   0.00001  -0.00001  -0.00001   0.00000
 211        4XY         0.00001   0.00001  -0.00001   0.00002  -0.00000
 212        4XZ        -0.00000   0.00000   0.00000   0.00000   0.00001
 213        4YZ         0.00000   0.00000   0.00000  -0.00001   0.00001
 214 18  H  1S          0.00000  -0.00001   0.00001   0.00003   0.00004
 215        2S         -0.00025   0.00001   0.00004   0.00024   0.00013
 216        3PX         0.00004  -0.00001  -0.00003  -0.00001  -0.00002
 217        3PY        -0.00002   0.00001   0.00001   0.00002  -0.00000
 218        3PZ        -0.00001   0.00001   0.00000   0.00001  -0.00000
 219 19  H  1S          0.00001   0.00001   0.00005  -0.00002   0.00005
 220        2S         -0.00025  -0.00020   0.00021   0.00006  -0.00027
 221        3PX         0.00004   0.00001  -0.00001  -0.00002  -0.00001
 222        3PY         0.00001  -0.00004   0.00001  -0.00000  -0.00001
 223        3PZ         0.00002   0.00001  -0.00001   0.00000   0.00001
 224 20  C  1S          0.00000   0.00000   0.00000  -0.00000   0.00000
 225        2S          0.00002   0.00001   0.00002  -0.00001   0.00000
 226        2PX        -0.00000   0.00000  -0.00001  -0.00001  -0.00001
 227        2PY        -0.00000  -0.00000  -0.00001   0.00002  -0.00000
 228        2PZ         0.00000   0.00000   0.00000   0.00001  -0.00000
 229        3S         -0.00009  -0.00013  -0.00005   0.00008   0.00009
 230        3PX         0.00002   0.00006   0.00018  -0.00002   0.00011
 231        3PY         0.00006  -0.00003  -0.00001  -0.00006   0.00009
 232        3PZ        -0.00002  -0.00001  -0.00005  -0.00008  -0.00003
 233        4XX         0.00000   0.00000   0.00001   0.00000   0.00001
 234        4YY         0.00001   0.00000   0.00000   0.00001   0.00001
 235        4ZZ         0.00000   0.00000   0.00001   0.00000   0.00000
 236        4XY        -0.00001   0.00000   0.00001  -0.00000   0.00000
 237        4XZ         0.00000  -0.00000  -0.00000   0.00001  -0.00000
 238        4YZ        -0.00000   0.00000   0.00000  -0.00000  -0.00000
 239 21  H  1S         -0.00002   0.00004   0.00001   0.00004  -0.00001
 240        2S         -0.00002   0.00002   0.00007   0.00004  -0.00003
 241        3PX         0.00001  -0.00002  -0.00001   0.00001  -0.00000
 242        3PY        -0.00000   0.00000  -0.00001   0.00000  -0.00000
 243        3PZ         0.00000  -0.00000   0.00000   0.00001   0.00000
 244 22  H  1S         -0.00001   0.00002   0.00000  -0.00003   0.00000
 245        2S         -0.00000  -0.00013  -0.00026   0.00035   0.00005
 246        3PX         0.00001   0.00001   0.00000  -0.00002   0.00000
 247        3PY        -0.00000   0.00000   0.00001  -0.00002  -0.00000
 248        3PZ         0.00000  -0.00001  -0.00000  -0.00000   0.00000
 249 23  H  1S          0.00000   0.00000   0.00002   0.00001  -0.00000
 250        2S          0.00004   0.00004   0.00001   0.00002   0.00002
 251        3PX        -0.00000  -0.00000  -0.00001   0.00000  -0.00001
 252        3PY        -0.00000   0.00000  -0.00000   0.00000  -0.00001
 253        3PZ        -0.00000  -0.00000   0.00000  -0.00000  -0.00000
 254 24  H  1S          0.00000   0.00000   0.00001  -0.00001   0.00001
 255        2S          0.00006  -0.00001  -0.00002  -0.00007   0.00001
 256        3PX        -0.00000  -0.00000  -0.00001  -0.00000  -0.00000
 257        3PY         0.00000  -0.00000  -0.00000  -0.00001  -0.00000
 258        3PZ         0.00000   0.00000   0.00000   0.00000   0.00000
 259 25  N  1S         -0.00000   0.00000   0.00000   0.00000   0.00000
 260        2S         -0.00001   0.00001   0.00002   0.00000   0.00002
 261        2PX         0.00000  -0.00000  -0.00000   0.00000   0.00000
 262        2PY        -0.00000  -0.00000  -0.00000   0.00000  -0.00000
 263        2PZ         0.00000  -0.00000  -0.00000  -0.00000   0.00000
 264        3S          0.00002  -0.00004  -0.00014  -0.00002  -0.00014
 265        3PX        -0.00003   0.00004   0.00005  -0.00000   0.00006
 266        3PY         0.00000   0.00000   0.00005   0.00001   0.00003
 267        3PZ        -0.00002   0.00001  -0.00001   0.00001  -0.00003
 268        4XX        -0.00000   0.00000   0.00000   0.00001   0.00000
 269        4YY        -0.00001   0.00001   0.00001  -0.00000   0.00001
 270        4ZZ        -0.00000   0.00001   0.00001   0.00001   0.00001
 271        4XY         0.00000  -0.00000  -0.00001  -0.00000  -0.00000
 272        4XZ        -0.00000  -0.00000   0.00000  -0.00000   0.00000
 273        4YZ        -0.00000   0.00000   0.00000  -0.00000   0.00000
 274 26  H  1S          0.00001  -0.00000   0.00001  -0.00000   0.00001
 275        2S          0.00001  -0.00002  -0.00001   0.00001  -0.00000
 276        3PX        -0.00000   0.00000   0.00000   0.00000  -0.00000
 277        3PY         0.00000  -0.00000  -0.00000  -0.00000  -0.00000
 278        3PZ        -0.00000   0.00000  -0.00000  -0.00000   0.00000
 279 27  H  1S         -0.00001   0.00001   0.00001   0.00000   0.00000
 280        2S         -0.00000  -0.00000  -0.00001   0.00000  -0.00001
 281        3PX         0.00000  -0.00000  -0.00000   0.00000  -0.00000
 282        3PY        -0.00000  -0.00000  -0.00000   0.00000  -0.00000
 283        3PZ         0.00000  -0.00000  -0.00000  -0.00000  -0.00000
                           6         7         8         9        10
                           O         O         O         O         O
     Eigenvalues --   -19.02062 -19.01528 -18.97570 -18.95501 -14.21383
   1 1   C  1S         -0.00002  -0.00002   0.00000  -0.00000  -0.00000
   2        2S         -0.00015   0.00013  -0.00004  -0.00006  -0.00000
   3        2PX         0.00001   0.00007  -0.00001  -0.00004   0.00001
   4        2PY        -0.00005  -0.00004  -0.00002   0.00001   0.00001
   5        2PZ         0.00007  -0.00032  -0.00002   0.00005  -0.00000
   6        3S          0.00082  -0.00104   0.00011   0.00006   0.00009
   7        3PX        -0.00063  -0.00045  -0.00043   0.00023   0.00000
   8        3PY         0.00003   0.00015  -0.00001  -0.00011  -0.00006
   9        3PZ        -0.00004   0.00103   0.00018  -0.00035   0.00008
  10        4XX         0.00001   0.00002   0.00006   0.00001   0.00001
  11        4YY         0.00002   0.00001   0.00001   0.00004   0.00000
  12        4ZZ        -0.00004   0.00020   0.00003   0.00000  -0.00000
  13        4XY         0.00005  -0.00000   0.00004   0.00003  -0.00000
  14        4XZ        -0.00001  -0.00004  -0.00004   0.00000   0.00000
  15        4YZ        -0.00001   0.00003   0.00000   0.00001  -0.00000
  16 2   O  1S          0.00012   0.99274   0.00002  -0.00003  -0.00000
  17        2S         -0.00017   0.02586   0.00004  -0.00007  -0.00001
  18        2PX         0.00005  -0.00084  -0.00002   0.00001   0.00000
  19        2PY         0.00005   0.00039  -0.00002  -0.00004   0.00000
  20        2PZ        -0.00004   0.00033   0.00002  -0.00001  -0.00000
  21        3S          0.00057   0.01221  -0.00008   0.00011   0.00004
  22        3PX        -0.00011  -0.00003   0.00010  -0.00003  -0.00002
  23        3PY        -0.00025   0.00002   0.00006   0.00015   0.00001
  24        3PZ         0.00021   0.00052  -0.00006  -0.00001   0.00002
  25        4XX        -0.00013  -0.00804   0.00005  -0.00007  -0.00000
  26        4YY        -0.00013  -0.00811   0.00004  -0.00004  -0.00000
  27        4ZZ        -0.00012  -0.00817   0.00003  -0.00008   0.00000
  28        4XY         0.00005  -0.00002  -0.00000   0.00001  -0.00000
  29        4XZ        -0.00002   0.00005   0.00002  -0.00001   0.00000
  30        4YZ        -0.00003  -0.00002  -0.00000   0.00001   0.00000
  31 3   H  1S         -0.00006   0.00031   0.00003  -0.00007  -0.00001
  32        2S          0.00030  -0.00122  -0.00017   0.00010   0.00000
  33        3PX         0.00003  -0.00012  -0.00001   0.00001  -0.00000
  34        3PY        -0.00001   0.00005  -0.00000  -0.00002   0.00000
  35        3PZ         0.00002  -0.00012  -0.00002   0.00000  -0.00000
  36 4   P  1S          0.00001   0.00000   0.00002   0.00000   0.00000
  37        2S         -0.00003   0.00004  -0.00004   0.00007   0.00000
  38        2PX        -0.00002  -0.00001  -0.00001  -0.00001   0.00000
  39        2PY         0.00005  -0.00000  -0.00001  -0.00000   0.00000
  40        2PZ         0.00003  -0.00000  -0.00001   0.00000  -0.00000
  41        3S          0.00020   0.00026   0.00091   0.00027   0.00001
  42        3PX         0.00013   0.00011   0.00012   0.00013  -0.00001
  43        3PY        -0.00009   0.00007   0.00009   0.00006  -0.00000
  44        3PZ        -0.00016  -0.00003   0.00015  -0.00002   0.00000
  45        4S         -0.00274  -0.00103  -0.00373  -0.00131  -0.00007
  46        4PX        -0.00074  -0.00039  -0.00022  -0.00004  -0.00003
  47        4PY         0.00135  -0.00000  -0.00082  -0.00105   0.00000
  48        4PZ         0.00169   0.00043  -0.00198   0.00001   0.00000
  49        5XX        -0.00003   0.00003  -0.00021   0.00006  -0.00001
  50        5YY         0.00026  -0.00001  -0.00026   0.00005  -0.00000
  51        5ZZ        -0.00006  -0.00003  -0.00006   0.00004  -0.00000
  52        5XY        -0.00007  -0.00001   0.00001   0.00001  -0.00000
  53        5XZ        -0.00005  -0.00002  -0.00007  -0.00002   0.00000
  54        5YZ         0.00008  -0.00002   0.00001   0.00000  -0.00000
  55 5   P  1S          0.00000   0.00000  -0.00000   0.00001  -0.00000
  56        2S          0.00003   0.00002  -0.00004  -0.00015  -0.00000
  57        2PX        -0.00000  -0.00001  -0.00000   0.00001   0.00000
  58        2PY        -0.00000   0.00000  -0.00000   0.00001  -0.00000
  59        2PZ        -0.00000  -0.00001  -0.00001  -0.00000   0.00000
  60        3S          0.00017   0.00015  -0.00029   0.00040  -0.00001
  61        3PX         0.00001   0.00006   0.00004   0.00011   0.00000
  62        3PY        -0.00000  -0.00010   0.00005   0.00010   0.00000
  63        3PZ         0.00001   0.00001   0.00010  -0.00005  -0.00000
  64        4S         -0.00077  -0.00060   0.00093  -0.00110   0.00005
  65        4PX         0.00047  -0.00010  -0.00043  -0.00219   0.00004
  66        4PY         0.00043   0.00019  -0.00044  -0.00219   0.00000
  67        4PZ        -0.00001   0.00024   0.00014   0.00108   0.00000
  68        5XX         0.00002  -0.00000   0.00000  -0.00022  -0.00000
  69        5YY         0.00000  -0.00001   0.00001  -0.00022   0.00000
  70        5ZZ         0.00000  -0.00002   0.00005  -0.00025   0.00000
  71        5XY        -0.00002  -0.00003   0.00003   0.00004   0.00000
  72        5XZ        -0.00001  -0.00002  -0.00003  -0.00005  -0.00000
  73        5YZ        -0.00001   0.00001  -0.00002  -0.00002   0.00000
  74 6   O  1S         -0.00112  -0.00005   0.00005  -0.00004  -0.00000
  75        2S         -0.00024  -0.00012  -0.00004  -0.00012  -0.00000
  76        2PX        -0.00001  -0.00003   0.00002  -0.00001  -0.00000
  77        2PY        -0.00002  -0.00001  -0.00001  -0.00001  -0.00000
  78        2PZ         0.00005   0.00002  -0.00004  -0.00003  -0.00000
  79        3S          0.00133   0.00054   0.00020   0.00063   0.00002
  80        3PX         0.00030   0.00024   0.00002   0.00011   0.00001
  81        3PY        -0.00015  -0.00004   0.00008   0.00008   0.00000
  82        3PZ        -0.00010  -0.00006   0.00037   0.00017   0.00000
  83        4XX        -0.00010  -0.00005  -0.00000  -0.00008  -0.00000
  84        4YY        -0.00025  -0.00009   0.00001  -0.00009  -0.00000
  85        4ZZ        -0.00014  -0.00009   0.00002  -0.00007  -0.00000
  86        4XY         0.00006   0.00001   0.00000  -0.00000   0.00000
  87        4XZ        -0.00002  -0.00001   0.00004   0.00001   0.00000
  88        4YZ         0.00001  -0.00001  -0.00002   0.00001  -0.00000
  89 7   H  1S          0.00007  -0.00003  -0.00006  -0.00004  -0.00000
  90        2S         -0.00009   0.00014   0.00016   0.00008   0.00000
  91        3PX        -0.00001   0.00000   0.00001   0.00001  -0.00000
  92        3PY        -0.00005  -0.00003   0.00000   0.00001  -0.00000
  93        3PZ        -0.00001   0.00000   0.00003   0.00000   0.00000
  94 8   O  1S          0.99267  -0.00020   0.00006   0.00002  -0.00000
  95        2S          0.02580  -0.00016  -0.00003   0.00006  -0.00000
  96        2PX        -0.00016  -0.00001  -0.00001  -0.00001  -0.00000
  97        2PY         0.00010  -0.00003  -0.00001   0.00000  -0.00000
  98        2PZ         0.00082   0.00000  -0.00004   0.00000  -0.00000
  99        3S          0.01281   0.00071   0.00019  -0.00029   0.00002
 100        3PX         0.00003   0.00006   0.00003   0.00004   0.00000
 101        3PY         0.00065   0.00022   0.00021  -0.00004   0.00001
 102        3PZ        -0.00028  -0.00006   0.00033   0.00001  -0.00000
 103        4XX        -0.00826  -0.00011   0.00002   0.00004  -0.00000
 104        4YY        -0.00831  -0.00009   0.00005   0.00005  -0.00000
 105        4ZZ        -0.00829  -0.00011  -0.00000   0.00006  -0.00000
 106        4XY         0.00002   0.00001   0.00000   0.00000  -0.00000
 107        4XZ         0.00001  -0.00000   0.00001   0.00000   0.00000
 108        4YZ         0.00000  -0.00001   0.00001  -0.00001   0.00000
 109 9   H  1S          0.00043   0.00000  -0.00008   0.00001  -0.00000
 110        2S         -0.00088   0.00004   0.00025  -0.00016   0.00001
 111        3PX         0.00000  -0.00000  -0.00001  -0.00000   0.00000
 112        3PY        -0.00006   0.00000   0.00002  -0.00002   0.00000
 113        3PZ         0.00001  -0.00001   0.00003   0.00001  -0.00000
 114 10  O  1S         -0.00019   0.00002  -0.00000   0.00004   0.00000
 115        2S         -0.00008   0.00003  -0.00011   0.00012   0.00000
 116        2PX         0.00001   0.00000   0.00002  -0.00004   0.00000
 117        2PY        -0.00000  -0.00000   0.00002  -0.00002   0.00000
 118        2PZ         0.00001  -0.00001  -0.00005  -0.00005  -0.00000
 119        3S          0.00043  -0.00009   0.00055  -0.00059  -0.00002
 120        3PX        -0.00009  -0.00000  -0.00021   0.00029  -0.00001
 121        3PY        -0.00005   0.00000  -0.00032   0.00024  -0.00000
 122        3PZ        -0.00005   0.00002   0.00029   0.00017   0.00000
 123        4XX        -0.00004   0.00003  -0.00005   0.00006   0.00000
 124        4YY        -0.00004   0.00002  -0.00001   0.00006   0.00000
 125        4ZZ        -0.00005   0.00002  -0.00010   0.00008   0.00000
 126        4XY         0.00000   0.00000   0.00005  -0.00004   0.00000
 127        4XZ         0.00001   0.00000  -0.00001  -0.00002   0.00000
 128        4YZ        -0.00000  -0.00001  -0.00002   0.00000  -0.00000
 129 11  H  1S         -0.00002   0.00001  -0.00015   0.00014  -0.00000
 130        2S         -0.00016  -0.00002  -0.00101  -0.00030  -0.00000
 131        3PX        -0.00001  -0.00001   0.00001   0.00001  -0.00000
 132        3PY        -0.00002  -0.00001   0.00006   0.00003  -0.00000
 133        3PZ         0.00001  -0.00000   0.00004   0.00003   0.00000
 134 12  O  1S         -0.00004  -0.00006   0.00000   0.00008  -0.00000
 135        2S         -0.00009  -0.00012   0.00003   0.00014  -0.00001
 136        2PX         0.00000  -0.00003   0.00001  -0.00002  -0.00000
 137        2PY        -0.00000   0.00002   0.00002  -0.00001   0.00000
 138        2PZ        -0.00001   0.00002  -0.00002   0.00005  -0.00000
 139        3S          0.00048   0.00051  -0.00026  -0.00070   0.00003
 140        3PX         0.00005   0.00018  -0.00004   0.00017   0.00000
 141        3PY        -0.00003  -0.00016  -0.00009   0.00012  -0.00001
 142        3PZ         0.00007  -0.00006   0.00004  -0.00025   0.00001
 143        4XX        -0.00006  -0.00007   0.00002   0.00015  -0.00000
 144        4YY        -0.00004  -0.00010  -0.00002   0.00011  -0.00001
 145        4ZZ        -0.00005  -0.00009   0.00001   0.00010  -0.00000
 146        4XY        -0.00000  -0.00002   0.00001  -0.00001  -0.00000
 147        4XZ         0.00001  -0.00001   0.00000  -0.00000   0.00000
 148        4YZ        -0.00000   0.00001  -0.00002   0.00001   0.00000
 149 13  H  1S         -0.00003   0.00001   0.00007  -0.00001   0.00000
 150        2S          0.00003   0.00005   0.00000   0.00027   0.00001
 151        3PX         0.00000  -0.00001   0.00000   0.00004  -0.00000
 152        3PY         0.00000  -0.00002  -0.00002   0.00002  -0.00000
 153        3PZ        -0.00000   0.00001  -0.00000   0.00003   0.00000
 154 14  O  1S          0.00000  -0.00001   0.00002   0.99270   0.00000
 155        2S          0.00004  -0.00010  -0.00004   0.02561   0.00001
 156        2PX         0.00001   0.00000   0.00000  -0.00057  -0.00000
 157        2PY         0.00001   0.00003  -0.00000  -0.00056   0.00000
 158        2PZ         0.00001   0.00001  -0.00000   0.00026   0.00000
 159        3S         -0.00023   0.00046   0.00023   0.01302  -0.00004
 160        3PX        -0.00002  -0.00005   0.00002  -0.00031   0.00002
 161        3PY        -0.00003  -0.00015   0.00002  -0.00035   0.00001
 162        3PZ        -0.00004  -0.00005   0.00000   0.00006  -0.00000
 163        4XX         0.00004  -0.00007  -0.00005  -0.00822   0.00000
 164        4YY         0.00003  -0.00006  -0.00005  -0.00822   0.00000
 165        4ZZ         0.00003  -0.00008  -0.00004  -0.00824   0.00000
 166        4XY         0.00000   0.00001  -0.00001   0.00004  -0.00000
 167        4XZ         0.00000   0.00000   0.00000  -0.00001   0.00000
 168        4YZ         0.00000   0.00001   0.00000  -0.00001   0.00000
 169 15  O  1S         -0.00003   0.00000   0.99268  -0.00006  -0.00000
 170        2S          0.00009   0.00002   0.02549  -0.00010  -0.00000
 171        2PX        -0.00002  -0.00001   0.00016   0.00000  -0.00000
 172        2PY         0.00002  -0.00000  -0.00014  -0.00001   0.00000
 173        2PZ        -0.00002  -0.00001  -0.00076   0.00000   0.00000
 174        3S         -0.00047  -0.00008   0.01340   0.00059   0.00002
 175        3PX         0.00014   0.00004   0.00034  -0.00001   0.00000
 176        3PY        -0.00017  -0.00000   0.00021   0.00008  -0.00000
 177        3PZ        -0.00006  -0.00002  -0.00045  -0.00009  -0.00000
 178        4XX         0.00009   0.00002  -0.00833  -0.00006  -0.00000
 179        4YY         0.00007   0.00003  -0.00828  -0.00009  -0.00000
 180        4ZZ         0.00010   0.00002  -0.00833  -0.00007  -0.00000
 181        4XY         0.00001  -0.00001   0.00003  -0.00001  -0.00000
 182        4XZ        -0.00002  -0.00000  -0.00001   0.00002  -0.00000
 183        4YZ         0.00003   0.00001   0.00001  -0.00000  -0.00000
 184 16  C  1S         -0.00002   0.00001  -0.00001  -0.00001   0.00000
 185        2S         -0.00010   0.00011  -0.00004  -0.00002   0.00002
 186        2PX        -0.00001   0.00000   0.00008   0.00001  -0.00002
 187        2PY        -0.00001  -0.00000   0.00005  -0.00003   0.00001
 188        2PZ        -0.00003  -0.00009  -0.00002  -0.00001  -0.00000
 189        3S          0.00059   0.00013  -0.00007  -0.00008  -0.00029
 190        3PX        -0.00026  -0.00020  -0.00091  -0.00017   0.00002
 191        3PY        -0.00007   0.00012  -0.00042   0.00008  -0.00013
 192        3PZ         0.00001   0.00040   0.00009   0.00020   0.00003
 193        4XX         0.00001   0.00001  -0.00003  -0.00001  -0.00000
 194        4YY         0.00000   0.00003  -0.00002  -0.00002   0.00000
 195        4ZZ        -0.00002  -0.00005  -0.00001  -0.00003   0.00001
 196        4XY         0.00001   0.00001  -0.00002  -0.00001  -0.00000
 197        4XZ         0.00001  -0.00003   0.00002  -0.00001  -0.00001
 198        4YZ         0.00000   0.00000   0.00000  -0.00000   0.00000
 199 17  C  1S         -0.00000  -0.00002  -0.00002  -0.00002   0.00000
 200        2S         -0.00000  -0.00012  -0.00010  -0.00009   0.00005
 201        2PX         0.00001  -0.00007  -0.00001   0.00000   0.00001
 202        2PY        -0.00000  -0.00001  -0.00001  -0.00000   0.00000
 203        2PZ         0.00001  -0.00003   0.00002  -0.00001  -0.00001
 204        3S          0.00004   0.00085   0.00087   0.00054   0.00003
 205        3PX        -0.00010   0.00017  -0.00041  -0.00008  -0.00031
 206        3PY         0.00005  -0.00007  -0.00014   0.00008   0.00007
 207        3PZ        -0.00005  -0.00020   0.00009   0.00013   0.00018
 208        4XX        -0.00001   0.00000   0.00001  -0.00002  -0.00006
 209        4YY        -0.00000  -0.00000  -0.00002   0.00001   0.00000
 210        4ZZ        -0.00000   0.00001  -0.00002  -0.00006  -0.00000
 211        4XY        -0.00000  -0.00001   0.00002  -0.00001   0.00001
 212        4XZ         0.00000   0.00004  -0.00002   0.00001   0.00000
 213        4YZ         0.00000   0.00001  -0.00001   0.00000  -0.00001
 214 18  H  1S          0.00003   0.00006  -0.00007   0.00002  -0.00000
 215        2S         -0.00012   0.00016  -0.00012   0.00005  -0.00001
 216        3PX        -0.00001  -0.00002   0.00004   0.00002  -0.00000
 217        3PY        -0.00003   0.00001  -0.00000   0.00001   0.00000
 218        3PZ        -0.00002  -0.00005  -0.00001  -0.00001  -0.00000
 219 19  H  1S         -0.00005  -0.00005  -0.00005  -0.00004   0.00000
 220        2S          0.00000  -0.00028   0.00018  -0.00009   0.00003
 221        3PX         0.00000   0.00003   0.00000   0.00001  -0.00000
 222        3PY         0.00000  -0.00001   0.00002  -0.00002   0.00000
 223        3PZ        -0.00001   0.00001  -0.00000  -0.00000  -0.00000
 224 20  C  1S         -0.00000   0.00001  -0.00000   0.00001  -0.00001
 225        2S         -0.00001   0.00005  -0.00000   0.00003   0.00007
 226        2PX        -0.00000   0.00002   0.00001   0.00001   0.00021
 227        2PY        -0.00000   0.00000  -0.00000   0.00000   0.00013
 228        2PZ        -0.00000   0.00003  -0.00000   0.00000  -0.00005
 229        3S          0.00009  -0.00036  -0.00006  -0.00021   0.00027
 230        3PX        -0.00004   0.00003  -0.00008   0.00002   0.00010
 231        3PY         0.00006  -0.00018  -0.00003  -0.00008  -0.00016
 232        3PZ        -0.00001  -0.00006   0.00005  -0.00001  -0.00020
 233        4XX         0.00000  -0.00001  -0.00001  -0.00000   0.00007
 234        4YY        -0.00000   0.00001  -0.00001   0.00001   0.00003
 235        4ZZ        -0.00000  -0.00001  -0.00001   0.00001  -0.00000
 236        4XY        -0.00000   0.00001  -0.00000   0.00000   0.00006
 237        4XZ         0.00000  -0.00001   0.00000   0.00000  -0.00003
 238        4YZ        -0.00000   0.00001  -0.00000   0.00000  -0.00002
[...]
 194         V                 2.030423          3.208940
 195         V                 2.040309          3.138320
 196         V                 2.057889          3.271902
 197         V                 2.070112          3.279947
 198         V                 2.096379          3.412282
 199         V                 2.132639          3.251475
 200         V                 2.174545          3.429635
 201         V                 2.183749          3.339017
 202         V                 2.197870          3.471102
 203         V                 2.200972          3.343767
 204         V                 2.213923          3.338580
 205         V                 2.229737          3.361457
 206         V                 2.246077          3.403888
 207         V                 2.259948          3.305727
 208         V                 2.298790          3.403027
 209         V                 2.306264          3.425997
 210         V                 2.321702          3.377861
 211         V                 2.340045          3.282084
 212         V                 2.348433          3.472807
 213         V                 2.375322          3.206000
 214         V                 2.380055          3.538147
 215         V                 2.396969          3.240416
 216         V                 2.420767          3.373081
 217         V                 2.467009          3.661135
 218         V                 2.487962          3.659389
 219         V                 2.496371          3.717003
 220         V                 2.503889          3.329560
 221         V                 2.523761          3.695305
 222         V                 2.537956          3.592652
 223         V                 2.550051          3.718398
 224         V                 2.573683          3.730921
 225         V                 2.608102          4.168319
 226         V                 2.621807          3.916527
 227         V                 2.631545          3.849179
 228         V                 2.650829          4.354557
 229         V                 2.668935          4.076371
 230         V                 2.670274          3.770867
 231         V                 2.735672          3.889982
 232         V                 2.742814          3.913184
 233         V                 2.766952          3.636827
 234         V                 2.770822          3.781077
 235         V                 2.779221          3.785771
 236         V                 2.792447          3.909561
 237         V                 2.797988          3.756069
 238         V                 2.806128          4.167606
 239         V                 2.823301          3.745833
 240         V                 2.833731          3.821862
 241         V                 2.844337          3.902061
 242         V                 2.849162          3.877270
 243         V                 2.881287          4.125375
 244         V                 2.904474          3.800202
 245         V                 2.919689          4.028866
 246         V                 2.935475          4.266664
 247         V                 2.961915          4.034813
 248         V                 2.972851          4.131824
 249         V                 2.988250          4.640279
 250         V                 3.021388          4.050410
 251         V                 3.025180          4.341740
 252         V                 3.029336          4.214614
 253         V                 3.059137          4.222537
 254         V                 3.072017          4.070289
 255         V                 3.097500          4.187855
 256         V                 3.204708          4.691043
 257         V                 3.351189          5.126355
 258         V                 3.397941          5.339717
 259         V                 3.415382          5.013974
 260         V                 3.472419          5.075993
 261         V                 3.504456          6.248535
 262         V                 3.510803          6.333987
 263         V                 3.515062          5.370788
 264         V                 3.564134          6.296288
 265         V                 3.598650          5.310333
 266         V                 3.604665          6.116136
 267         V                 3.618681          6.065782
 268         V                 3.654200          5.291732
 269         V                 3.687353         10.179375
 270         V                 3.707730          5.455038
 271         V                 3.716918          9.807142
 272         V                 3.960124          9.392360
 273         V                 4.081934          9.603475
 274         V                 4.123151          9.592775
 275         V                 4.172842         10.297206
 276         V                 4.213224          9.972787
 277         V                 4.257108         10.732714
 278         V                 4.352531         10.698698
 279         V                 4.435502         10.501263
 280         V                 4.466135         10.543073
 281         V                 4.567542         10.546994
 282         V                 4.691389         10.326734
 283         V                 4.864355         10.547744
 Total kinetic energy from orbitals= 1.415957627790D+03
                          Isotropic Fermi Contact Couplings
        Atom                 a.u.       MegaHertz       Gauss      10(-4) cm-1
     1  C(13)              0.05552      62.41700      22.27194      20.82007
     2  O(17)              0.19425    -117.75428     -42.01766     -39.27860
     3  H(1)               0.00373      16.65106       5.94151       5.55420
     4  P(31)              0.33216     601.57440     214.65670     200.66362
     5  P(31)              0.25036     453.42591     161.79364     151.24660
     6  O(17)              0.36921    -223.81345     -79.86220     -74.65613
     7  H(1)               0.00930      41.59018      14.84041      13.87299
     8  O(17)              0.60009    -363.77391    -129.80358    -121.34191
     9  H(1)               0.01503      67.16132      23.96483      22.40260
    10  O(17)              0.09518     -57.69575     -20.58728     -19.24523
    11  H(1)               0.00387      17.29550       6.17147       5.76916
    12  O(17)              0.37607    -227.97461     -81.34701     -76.04415
    13  H(1)               0.00325      14.52685       5.18354       4.84564
    14  O(17)              0.14107     -85.51421     -30.51360     -28.52447
    15  O(17)              0.04824     -29.24473     -10.43525      -9.75499
    16  C(13)              0.02132      23.96958       8.55294       7.99539
    17  C(13)              0.01087      12.22485       4.36213       4.07777
    18  H(1)              -0.00028      -1.24762      -0.44518      -0.41616
    19  H(1)               0.00130       5.79282       2.06702       1.93228
    20  C(13)              0.00102       1.14933       0.41011       0.38337
    21  H(1)              -0.00007      -0.33356      -0.11902      -0.11126
    22  H(1)               0.00019       0.86686       0.30932       0.28915
    23  H(1)              -0.00009      -0.41956      -0.14971      -0.13995
    24  H(1)              -0.00007      -0.31786      -0.11342      -0.10603
    25  N(14)             -0.00022      -0.07066      -0.02521      -0.02357
    26  H(1)               0.00004       0.20104       0.07173       0.06706
    27  H(1)               0.00003       0.13786       0.04919       0.04598
 --------------------------------------------------------
       Center         ----  Spin Dipole Couplings  ----
                      3XX-RR        3YY-RR        3ZZ-RR
 --------------------------------------------------------
     1   Atom        0.004467     -0.043590      0.039124
     2   Atom        0.036989     -0.012681     -0.024309
     3   Atom        0.002364     -0.003029      0.000665
     4   Atom       -0.060299     -0.024142      0.084441
     5   Atom       -0.004988     -0.022143      0.027132
     6   Atom        0.034935     -0.020780     -0.014155
     7   Atom       -0.001415      0.009645     -0.008230
     8   Atom       -0.040138     -0.043630      0.083768
     9   Atom       -0.012875      0.010539      0.002337
    10   Atom       -0.003324     -0.006761      0.010085
    11   Atom       -0.002085     -0.000366      0.002451
    12   Atom       -0.008467      0.013483     -0.005016
    13   Atom       -0.007282      0.017986     -0.010704
    14   Atom        0.051428      0.018783     -0.070211
    15   Atom       -0.009116      0.014303     -0.005187
    16   Atom        0.002189      0.005135     -0.007324
    17   Atom        0.000798      0.001211     -0.002009
    18   Atom        0.001973      0.001709     -0.003681
    19   Atom        0.000243     -0.000669      0.000426
    20   Atom        0.001980     -0.001793     -0.000187
    21   Atom        0.002073     -0.001422     -0.000652
    22   Atom        0.002263     -0.000102     -0.002161
    23   Atom        0.001144     -0.000854     -0.000290
    24   Atom        0.001101     -0.000143     -0.000958
    25   Atom        0.000952     -0.000429     -0.000524
    26   Atom        0.000786     -0.000359     -0.000427
    27   Atom        0.000936     -0.000438     -0.000498
 --------------------------------------------------------
                        XY            XZ            YZ
 --------------------------------------------------------
     1   Atom       -0.028141     -0.057635      0.025385
     2   Atom       -0.011582     -0.032275      0.010098
     3   Atom       -0.003547      0.005734     -0.003849
     4   Atom       -0.023715     -0.047521      0.103642
     5   Atom       -0.019303      0.000980      0.015279
     6   Atom        0.074705      0.030719      0.023059
     7   Atom       -0.008919     -0.000001     -0.003438
     8   Atom       -0.021016     -0.030636      0.135117
     9   Atom        0.000591     -0.001209     -0.019459
    10   Atom       -0.003353      0.008790      0.004845
    11   Atom        0.000287     -0.001156     -0.000635
    12   Atom        0.036845     -0.017682     -0.024255
    13   Atom       -0.004940      0.002460     -0.003338
    14   Atom        0.120541     -0.007305     -0.009565
    15   Atom        0.013551      0.002386      0.011175
    16   Atom       -0.001089     -0.000094     -0.004822
    17   Atom        0.000281     -0.000071     -0.000771
    18   Atom        0.000244      0.001017      0.001163
    19   Atom        0.000221      0.003185     -0.000139
    20   Atom       -0.002606      0.003518     -0.002350
    21   Atom       -0.000311     -0.000629      0.000526
    22   Atom       -0.000471      0.000158      0.000915
    23   Atom       -0.000432      0.000397      0.000067
    24   Atom       -0.000510      0.000283      0.000024
    25   Atom       -0.000153      0.000083     -0.000031
    26   Atom       -0.000048      0.000064     -0.000026
    27   Atom       -0.000064     -0.000270     -0.000032
 --------------------------------------------------------


 ---------------------------------------------------------------------------------
              Anisotropic Spin Dipole Couplings in Principal Axis System
 ---------------------------------------------------------------------------------

       Atom             a.u.   MegaHertz   Gauss  10(-4) cm-1        Axes

              Baa    -0.0566    -7.594    -2.710    -2.533  0.4383  0.8985  0.0256
     1 C(13)  Bbb    -0.0356    -4.776    -1.704    -1.593  0.6803 -0.3502  0.6438
              Bcc     0.0922    12.370     4.414     4.126 -0.5874  0.2647  0.7648
 
              Baa    -0.0391     2.829     1.009     0.944  0.3583 -0.1922  0.9136
     2 O(17)  Bbb    -0.0150     1.084     0.387     0.361  0.2722  0.9576  0.0947
              Bcc     0.0541    -3.912    -1.396    -1.305  0.8930 -0.2148 -0.3954
 
              Baa    -0.0055    -2.909    -1.038    -0.970 -0.0209  0.8373  0.5464
     3 H(1)   Bbb    -0.0040    -2.148    -0.766    -0.716  0.7255  0.3888 -0.5679
              Bcc     0.0095     5.057     1.804     1.687  0.6879 -0.3845  0.6155
 
              Baa    -0.0880   -19.030    -6.790    -6.348 -0.2625  0.7934 -0.5491
     4 P(31)  Bbb    -0.0719   -15.534    -5.543    -5.182  0.9362  0.3473  0.0543
              Bcc     0.1599    34.564    12.333    11.529 -0.2338  0.4998  0.8340
 
              Baa    -0.0375    -8.107    -2.893    -2.704  0.5042  0.8387 -0.2059
     5 P(31)  Bbb     0.0054     1.168     0.417     0.390  0.8524 -0.4450  0.2745
              Bcc     0.0321     6.938     2.476     2.314 -0.1386  0.3139  0.9393
 
              Baa    -0.0727     5.260     1.877     1.755 -0.5644  0.8250 -0.0288
     6 O(17)  Bbb    -0.0271     1.957     0.698     0.653 -0.2791 -0.1579  0.9472
              Bcc     0.0997    -7.217    -2.575    -2.407  0.7769  0.5426  0.3194
 
              Baa    -0.0095    -5.069    -1.809    -1.691  0.3572  0.3237  0.8761
     7 H(1)   Bbb    -0.0055    -2.934    -1.047    -0.979  0.8051  0.3687 -0.4645
              Bcc     0.0150     8.003     2.856     2.670 -0.4734  0.8713 -0.1289
 
              Baa    -0.1293     9.358     3.339     3.122  0.0159  0.8455 -0.5338
     8 O(17)  Bbb    -0.0465     3.365     1.201     1.122  0.9854  0.0772  0.1516
              Bcc     0.1758   -12.723    -4.540    -4.244 -0.1694  0.5284  0.8319
 
              Baa    -0.0138    -7.367    -2.629    -2.457  0.5349  0.5196  0.6663
     9 H(1)   Bbb    -0.0126    -6.699    -2.390    -2.234  0.8444 -0.3577 -0.3989
              Bcc     0.0264    14.066     5.019     4.692  0.0311  0.7760 -0.6300
 
              Baa    -0.0125     0.907     0.324     0.302  0.6184  0.6840 -0.3869
    10 O(17)  Bbb    -0.0023     0.167     0.059     0.056 -0.6700  0.7162  0.1953
              Bcc     0.0148    -1.073    -0.383    -0.358  0.4107  0.1384  0.9012
 
              Baa    -0.0024    -1.265    -0.451    -0.422  0.9722 -0.0681  0.2241
    11 H(1)   Bbb    -0.0005    -0.268    -0.096    -0.089  0.0183  0.9760  0.2170
              Bcc     0.0029     1.533     0.547     0.511 -0.2335 -0.2069  0.9501
 
              Baa    -0.0359     2.601     0.928     0.868  0.7977 -0.6029 -0.0168
    12 O(17)  Bbb    -0.0198     1.435     0.512     0.479  0.2790  0.3442  0.8965
              Bcc     0.0558    -4.036    -1.440    -1.346  0.5347  0.7198 -0.4427
 
              Baa    -0.0120    -6.407    -2.286    -2.137 -0.4386  0.0277  0.8983
    13 H(1)   Bbb    -0.0074    -3.935    -1.404    -1.313  0.8780  0.2265  0.4217
              Bcc     0.0194    10.342     3.690     3.450 -0.1918  0.9736 -0.1237
 
              Baa    -0.0869     6.287     2.244     2.097 -0.6454  0.7495  0.1471
    14 O(17)  Bbb    -0.0705     5.099     1.819     1.701  0.1355 -0.0772  0.9878
              Bcc     0.1574   -11.386    -4.063    -3.798  0.7517  0.6575 -0.0518
 
              Baa    -0.0161     1.167     0.416     0.389  0.8207 -0.4795  0.3107
    15 O(17)  Bbb    -0.0086     0.619     0.221     0.207 -0.4357 -0.1734  0.8832
              Bcc     0.0247    -1.786    -0.637    -0.596  0.3696  0.8602  0.3513
 
              Baa    -0.0090    -1.206    -0.430    -0.402  0.0397  0.3255  0.9447
    16 C(13)  Bbb     0.0020     0.268     0.096     0.089  0.9781  0.1807 -0.1033
              Bcc     0.0070     0.938     0.335     0.313 -0.2044  0.9281 -0.3112
 
              Baa    -0.0022    -0.293    -0.105    -0.098  0.0024  0.2212  0.9752
    17 C(13)  Bbb     0.0007     0.091     0.033     0.030  0.9254 -0.3701  0.0816
              Bcc     0.0015     0.202     0.072     0.067  0.3790  0.9023 -0.2056
 
              Baa    -0.0041    -2.172    -0.775    -0.724 -0.1556 -0.1886  0.9696
    18 H(1)   Bbb     0.0016     0.847     0.302     0.283 -0.6267  0.7776  0.0506
              Bcc     0.0025     1.325     0.473     0.442  0.7636  0.5998  0.2392
 
              Baa    -0.0029    -1.537    -0.549    -0.513  0.7131 -0.1146 -0.6916
    19 H(1)   Bbb    -0.0006    -0.342    -0.122    -0.114  0.0732  0.9933 -0.0892
              Bcc     0.0035     1.879     0.670     0.627  0.6972  0.0130  0.7168
 
              Baa    -0.0035    -0.467    -0.166    -0.156  0.0458  0.8354  0.5477
    20 C(13)  Bbb    -0.0026    -0.355    -0.127    -0.118  0.6857  0.3725 -0.6254
              Bcc     0.0061     0.821     0.293     0.274  0.7265 -0.4042  0.5558
 
              Baa    -0.0017    -0.901    -0.321    -0.301 -0.0021  0.8913 -0.4534
    21 H(1)   Bbb    -0.0006    -0.304    -0.109    -0.102  0.2564  0.4388  0.8612
              Bcc     0.0023     1.205     0.430     0.402  0.9666 -0.1144 -0.2294
 
              Baa    -0.0025    -1.350    -0.482    -0.450 -0.0663 -0.3631  0.9294
    22 H(1)   Bbb     0.0002     0.094     0.034     0.031  0.1780  0.9122  0.3691
              Bcc     0.0024     1.256     0.448     0.419  0.9818 -0.1899 -0.0042
 
              Baa    -0.0010    -0.522    -0.186    -0.174  0.2352  0.9448 -0.2281
    23 H(1)   Bbb    -0.0003    -0.183    -0.065    -0.061 -0.1737  0.2718  0.9465
              Bcc     0.0013     0.705     0.252     0.235  0.9563 -0.1830  0.2281
 
              Baa    -0.0010    -0.537    -0.192    -0.179 -0.1608 -0.1218  0.9794
    24 H(1)   Bbb    -0.0003    -0.163    -0.058    -0.054  0.3062  0.9372  0.1668
              Bcc     0.0013     0.701     0.250     0.234  0.9383 -0.3267  0.1134
 
              Baa    -0.0005    -0.021    -0.007    -0.007 -0.0294  0.2417  0.9699
    25 N(14)  Bbb    -0.0004    -0.017    -0.006    -0.006  0.1198  0.9642 -0.2367
              Bcc     0.0010     0.038     0.013     0.013  0.9924 -0.1093  0.0573
 
              Baa    -0.0004    -0.233    -0.083    -0.078 -0.0389  0.2897  0.9563
    26 H(1)   Bbb    -0.0004    -0.189    -0.067    -0.063  0.0562  0.9562 -0.2874
              Bcc     0.0008     0.422     0.151     0.141  0.9977 -0.0426  0.0535
 
              Baa    -0.0006    -0.300    -0.107    -0.100  0.1807  0.3340  0.9251
    27 H(1)   Bbb    -0.0004    -0.227    -0.081    -0.076 -0.0222  0.9417 -0.3356
              Bcc     0.0010     0.527     0.188     0.176  0.9833 -0.0402 -0.1776
 

 ---------------------------------------------------------------------------------


 Test job not archived.
 1\1\GINC-BATAGIN2\SP\UB3LYP\6-31G(d,p)\C4H13N1O7P2(1-,2)\ORISON\22-Jan
 -2021\0\\#t B3LYP/6-31G(d,p) # Gfinput IOP(6/7=3) Pop=hirshfeld Densit
 y Test # Units(Ang,Deg)\\alendronate-2-opt-g09.log\\-1,2\C,0,0.12693,-
 0.17508,0.39297\O,0,-0.01706,-0.2741,1.79834\H,0,0.78612,0.06316,2.221
 05\P,0,1.6333,-1.12374,-0.17389\P,0,0.37155,1.6145,-0.12026\O,0,2.7705
 6,-0.77761,0.91378\H,0,2.95167,0.18171,0.89493\O,0,1.37689,-2.67544,0.
 15834\H,0,1.44816,-3.20863,-0.64725\O,0,0.69143,1.56244,-1.68555\H,0,1
 .23106,0.76535,-1.92703\O,0,1.82706,1.84341,0.65121\H,0,1.9417,2.78055
 ,0.8726\O,0,-0.63144,2.62573,0.27432\O,0,1.95355,-0.83495,-1.61041\C,0
 ,-1.13276,-0.78068,-0.2591\C,0,-2.4575,-0.1551,0.20152\H,0,-1.1323,-1.
 84899,-0.01258\H,0,-1.03062,-0.69913,-1.34753\C,0,-3.66029,-0.89805,-0
 .3855\H,0,-2.50217,-0.19222,1.29587\H,0,-2.5133,0.89983,-0.07955\H,0,-
 3.62435,-0.84086,-1.48134\H,0,-3.58188,-1.97165,-0.12774\N,0,-4.90833,
 -0.26783,0.05135\H,0,-5.70387,-0.744,-0.36671\H,0,-5.01084,-0.37423,1.
 05859\\Version=EM64L-G16RevA.03\State=2-A\HF=-1424.3654164\S2=0.751323
 \S2-1=0.\S2A=0.750002\RMSD=5.907e-09\Dipole=-1.0373313,-0.8008915,0.19
 47103\Quadrupole=-0.0815002,-4.9691064,5.0506066,14.0874601,1.4670356,
 3.3085119\PG=C01 [X(C4H13N1O7P2)]\\@


 SEEN ON A WALL AT THE UNIVERSITY OF ILLINOIS AT CHICAGO CIRCLE:

 TO DO IS TO BE  -- SOCRATES
 TO BE IS TO DO  -- SARTRE
 OO BE DO BE DO  -- SINATRA
 Job cpu time:       0 days  0 hours 15 minutes 10.2 seconds.
 Elapsed time:       0 days  0 hours  1 minutes 53.8 seconds.
 File lengths (MBytes):  RWF=     80 Int=      0 D2E=      0 Chk=      7 Scr=      1
 Normal termination of Gaussian 16 at Fri Jan 22 01:52:27 2021.
