 Entering Gaussian System, Link 0=g16
 Input=w-alendronate_neutral_scf_g09.com
 Output=w-alendronate_neutral_scf_g09.log
 Initial command:
 /usr/local//g16/l1.exe "/home/orison/scrgauss/Gau-22983.inp" -scrdir="/home/orison/scrgauss/"
 Entering Link 1 = /usr/local//g16/l1.exe PID=     22985.
  
 Copyright (c) 1988,1990,1992,1993,1995,1998,2003,2009,2016,
            Gaussian, Inc.  All Rights Reserved.
  
 This is part of the Gaussian(R) 16 program.  It is based on
 the Gaussian(R) 09 system (copyright 2009, Gaussian, Inc.),
 the Gaussian(R) 03 system (copyright 2003, Gaussian, Inc.),
 the Gaussian(R) 98 system (copyright 1998, Gaussian, Inc.),
 the Gaussian(R) 94 system (copyright 1995, Gaussian, Inc.),
 the Gaussian 92(TM) system (copyright 1992, Gaussian, Inc.),
 the Gaussian 90(TM) system (copyright 1990, Gaussian, Inc.),
 the Gaussian 88(TM) system (copyright 1988, Gaussian, Inc.),
 the Gaussian 86(TM) system (copyright 1986, Carnegie Mellon
 University), and the Gaussian 82(TM) system (copyright 1983,
 Carnegie Mellon University). Gaussian is a federally registered
 trademark of Gaussian, Inc.
  
 This software contains proprietary and confidential information,
 including trade secrets, belonging to Gaussian, Inc.
  
 This software is provided under written license and may be
 used, copied, transmitted, or stored only in accord with that
 written license.
  
 The following legend is applicable only to US Government
 contracts under FAR:
  
                    RESTRICTED RIGHTS LEGEND
  
 Use, reproduction and disclosure by the US Government is
 subject to restrictions as set forth in subparagraphs (a)
 and (c) of the Commercial Computer Software - Restricted
 Rights clause in FAR 52.227-19.
  
 Gaussian, Inc.
 340 Quinnipiac St., Bldg. 40, Wallingford CT 06492
  
  
 ---------------------------------------------------------------
 Warning -- This program may not be used in any manner that
 competes with the business of Gaussian, Inc. or will provide
 assistance to any competitor of Gaussian, Inc.  The licensee
 of this program is prohibited from giving any competitor of
 Gaussian, Inc. access to this program.  By using this program,
 the user acknowledges that Gaussian, Inc. is engaged in the
 business of creating and licensing software in the field of
 computational chemistry and represents and warrants to the
 licensee that it is not a competitor of Gaussian, Inc. and that
 it will not use this program in any manner prohibited above.
 ---------------------------------------------------------------
  

 Cite this work as:
 Gaussian 16, Revision A.03,
 M. J. Frisch, G. W. Trucks, H. B. Schlegel, G. E. Scuseria, 
 M. A. Robb, J. R. Cheeseman, G. Scalmani, V. Barone, 
 G. A. Petersson, H. Nakatsuji, X. Li, M. Caricato, A. V. Marenich, 
 J. Bloino, B. G. Janesko, R. Gomperts, B. Mennucci, H. P. Hratchian, 
 J. V. Ortiz, A. F. Izmaylov, J. L. Sonnenberg, D. Williams-Young, 
 F. Ding, F. Lipparini, F. Egidi, J. Goings, B. Peng, A. Petrone, 
 T. Henderson, D. Ranasinghe, V. G. Zakrzewski, J. Gao, N. Rega, 
 G. Zheng, W. Liang, M. Hada, M. Ehara, K. Toyota, R. Fukuda, 
 J. Hasegawa, M. Ishida, T. Nakajima, Y. Honda, O. Kitao, H. Nakai, 
 T. Vreven, K. Throssell, J. A. Montgomery, Jr., J. E. Peralta, 
 F. Ogliaro, M. J. Bearpark, J. J. Heyd, E. N. Brothers, K. N. Kudin, 
 V. N. Staroverov, T. A. Keith, R. Kobayashi, J. Normand, 
 K. Raghavachari, A. P. Rendell, J. C. Burant, S. S. Iyengar, 
 J. Tomasi, M. Cossi, J. M. Millam, M. Klene, C. Adamo, R. Cammi, 
 J. W. Ochterski, R. L. Martin, K. Morokuma, O. Farkas, 
 J. B. Foresman, and D. J. Fox, Gaussian, Inc., Wallingford CT, 2016.
 
 ******************************************
 Gaussian 16:  EM64L-G16RevA.03 25-Dec-2016
                22-Jan-2021 
 ******************************************
 %nproc=8
 Will use up to    8 processors via shared memory.
 %Mem=4GB
 ----------------------------------------------------------------------
 #t B3LYP/6-31G(d,p) scrf=(solvent=water) # Gfinput IOP(6/7=3) Pop=hirs
 hfeld Density Test # Units(Ang,Deg)
 ----------------------------------------------------------------------
 -------------------------
 w-alendronate-opt-g09.log
 -------------------------
 Symbolic Z-matrix:
 Charge =  0 Multiplicity = 1
 C                     0.22759   0.14706  -0.33605 
 O                     0.14244   0.20912  -1.7513 
 H                     0.99734  -0.06391  -2.12067 
 P                     1.7528    1.07379   0.23326 
 P                     0.29324  -1.63255   0.23573 
 O                     2.7772    0.69408  -0.95586 
 H                     3.4046    1.4049   -1.1633 
 O                     1.47215   2.63387  -0.10221 
 H                     1.28307   3.14832   0.69829 
 O                     1.74992  -2.03915  -0.32655 
 H                     1.91307  -2.99616  -0.32896 
 O                    -0.67436  -2.4556   -0.77065 
 H                    -1.47247  -2.77113  -0.31948 
 O                     0.00415  -1.86375   1.67776 
 O                     2.1748    0.80631   1.63482 
 C                    -1.01172   0.85985   0.24918 
 C                    -2.3701    0.26816  -0.1534 
 H                    -0.96219   1.89644  -0.09998 
 H                    -0.91942   0.8791    1.34031 
 C                    -3.5244    1.19058   0.24862 
 H                    -2.40402   0.10102  -1.23385 
 H                    -2.52107  -0.70431   0.33143 
 H                    -3.45073   1.41336   1.32713 
 H                    -3.41771   2.14878  -0.27471 
 N                    -4.81289   0.60203  -0.14436 
 H                    -4.99049  -0.21768   0.43474 
 H                    -5.559     1.25541   0.08647 
 
                    Distance matrix (angstroms):
                    1          2          3          4          5
     1  C    0.000000
     2  O    1.419167   0.000000
     3  H    1.954966   0.970481   0.000000
     4  P    1.873288   2.698035   2.721409   0.000000
     5  P    1.870362   2.713444   2.917021   3.074833   0.000000
     6  O    2.680281   2.794615   2.258148   1.614801   3.605988
     7  H    3.515664   3.523822   2.978063   2.188254   4.567707
     8  O    2.790669   3.219789   3.402593   1.620233   4.439186
     9  H    3.345364   3.992546   4.283293   2.177286   4.904125
    10  O    2.664037   3.109441   2.772511   3.162877   1.613505
    11  H    3.566613   3.928359   3.556245   4.111724   2.191382
    12  O    2.788589   2.954584   3.215170   4.399493   1.620636
    13  H    3.377323   3.679665   4.083294   5.048891   2.173098
    14  O    2.854595   4.009285   4.319019   3.711266   1.488784
    15  O    2.847906   3.994112   4.030806   1.487952   3.383158
    16  C    1.544815   2.399470   3.241272   2.772832   2.813389
    17  C    2.606918   2.978192   3.914087   4.218631   3.295072
    18  H    2.128764   2.606552   3.430148   2.856392   3.760662
    19  H    2.159096   3.336836   4.067139   2.899004   2.999838
    20  C    3.938045   4.290531   5.256749   5.278515   4.748116
    21  H    2.780924   2.600750   3.518935   4.514183   3.527059
    22  H    2.953894   3.502343   4.336141   4.630037   2.964984
    23  H    4.230806   4.882397   5.818503   5.328094   4.948336
    24  H    4.159190   4.314773   5.272213   5.305451   5.322608
    25  N    5.064601   5.224168   6.173172   6.593439   5.586625
    26  H    5.287297   5.595346   6.512133   6.868803   5.473506
    27  H    5.906910   6.080998   7.042561   7.315528   6.527733
                    6          7          8          9         10
     6  O    0.000000
     7  H    0.970529   0.000000
     8  O    2.488907   2.524013   0.000000
     9  H    3.315408   3.317517   0.970160   0.000000
    10  O    2.986952   3.911470   4.686641   5.308304   0.000000
    11  H    3.841562   4.721241   5.651820   6.261532   0.970820
    12  O    4.676329   5.629880   5.563903   6.115001   2.499558
    13  H    5.520177   6.475884   6.158897   6.608233   3.304488
    14  O    4.600897   5.506247   5.054889   5.264584   2.663782
    15  O    2.662162   3.114513   2.617435   2.675310   3.481973
    16  C    3.979386   4.668625   3.072496   3.271828   4.045037
    17  C    5.226858   5.971535   4.512437   4.729307   4.725275
    18  H    4.020104   4.521185   2.543584   2.691771   4.784950
    19  H    4.355643   5.024110   3.298437   3.226842   4.291851
    20  C    6.434862   7.074637   5.212646   5.210251   6.211315
    21  H    5.222455   5.953583   4.766616   5.158860   4.760120
    22  H    5.628879   6.465025   5.222767   5.426677   4.522841
    23  H    6.672070   7.293686   5.269479   5.080786   6.457650
    24  H    6.399768   6.920033   4.916889   4.903381   6.651755
    25  N    7.633903   8.319254   6.605443   6.659908   7.076687
    26  H    7.943682   8.698508   7.084163   7.124393   7.023563
    27  H    8.419844   9.051541   7.167484   7.125402   8.027766
                   11         12         13         14         15
    11  H    0.000000
    12  O    2.679942   0.000000
    13  H    3.393024   0.969584   0.000000
    14  O    2.992199   2.608711   2.644374   0.000000
    15  O    4.287623   4.954196   5.469913   3.441335   0.000000
    16  C    4.874162   3.485122   3.704009   3.238955   3.475165
    17  C    5.388149   3.267323   3.173422   3.679028   4.913599
    18  H    5.679532   4.412811   4.700508   4.270035   3.746815
    19  H    5.082037   3.954293   4.047832   2.913774   3.109056
    20  C    6.886833   4.738804   4.497588   4.880783   5.877933
    21  H    5.389677   3.121311   3.154854   4.258765   5.449064
    22  H    5.034907   2.773434   2.407279   3.087660   5.102156
    23  H    7.138407   5.203630   4.912718   4.774787   5.666548
    24  H    7.408817   5.382587   5.290697   5.623314   6.060091
    25  N    7.630176   5.183510   4.750503   5.709997   7.213531
    26  H    7.480797   5.009015   4.411963   5.403802   7.336902
    27  H    8.606989   6.194026   5.751308   6.573431   7.900047
                   16         17         18         19         20
    16  C    0.000000
    17  C    1.535371   0.000000
    18  H    1.094936   2.153221   0.000000
    19  H    1.095196   2.169998   1.763872   0.000000
    20  C    2.534353   1.531302   2.680425   2.841607   0.000000
    21  H    2.171106   1.093827   2.566723   3.071766   2.154091
    22  H    2.175201   1.097064   3.062698   2.467855   2.145725
    23  H    2.723439   2.161299   2.909096   2.587110   1.103740
    24  H    2.779315   2.156139   2.474628   3.234475   1.096998
    25  N    3.830175   2.465517   4.062679   4.176137   1.470045
    26  H    4.126271   2.729174   4.580680   4.312377   2.041386
    27  H    4.567351   3.346832   4.645034   4.820729   2.042080
                   21         22         23         24         25
    21  H    0.000000
    22  H    1.764188   0.000000
    23  H    3.062100   2.517978   0.000000
    24  H    2.478071   3.051474   1.762902   0.000000
    25  N    2.690846   2.680548   2.163104   2.087092   0.000000
    26  H    3.094445   2.519031   2.414024   2.928667   1.019227
    27  H    3.609676   3.623469   2.451324   2.348123   1.018267
                   26         27
    26  H    0.000000
    27  H    1.616938   0.000000
 Framework group  C1[X(C4H13NO7P2)]
 Deg. of freedom    75
                         Standard orientation:                         
 ---------------------------------------------------------------------
 Center     Atomic      Atomic             Coordinates (Angstroms)
 Number     Number       Type             X           Y           Z
 ---------------------------------------------------------------------
      1          6           0       -0.227590   -0.147061   -0.336049
      2          8           0       -0.142440   -0.209121   -1.751299
      3          1           0       -0.997340    0.063909   -2.120669
      4         15           0       -1.752800   -1.073792    0.233261
      5         15           0       -0.293241    1.632549    0.235731
      6          8           0       -2.777200   -0.694082   -0.955859
      7          1           0       -3.404600   -1.404902   -1.163299
      8          8           0       -1.472149   -2.633871   -0.102209
      9          1           0       -1.283069   -3.148321    0.698291
     10          8           0       -1.749921    2.039148   -0.326549
     11          1           0       -1.913071    2.996158   -0.328959
     12          8           0        0.674359    2.455599   -0.770649
     13          1           0        1.472469    2.771130   -0.319479
     14          8           0       -0.004151    1.863749    1.677761
     15          8           0       -2.174800   -0.806312    1.634821
     16          6           0        1.011720   -0.859850    0.249181
     17          6           0        2.370100   -0.268160   -0.153399
     18          1           0        0.962191   -1.896440   -0.099979
     19          1           0        0.919420   -0.879100    1.340311
     20          6           0        3.524400   -1.190579    0.248621
     21          1           0        2.404020   -0.101020   -1.233849
     22          1           0        2.521069    0.704310    0.331431
     23          1           0        3.450730   -1.413359    1.327131
     24          1           0        3.417711   -2.148779   -0.274709
     25          7           0        4.812890   -0.602029   -0.144359
     26          1           0        4.990490    0.217681    0.434741
     27          1           0        5.559000   -1.255409    0.086471
 ---------------------------------------------------------------------
 Rotational constants (GHZ):           0.7002564           0.4087084           0.3168227
 AO basis set in the form of general basis input (Overlap normalization):
      1 0
 S   6 1.00       0.000000000000
      0.3047524880D+04  0.1834737132D-02
      0.4573695180D+03  0.1403732281D-01
      0.1039486850D+03  0.6884262226D-01
      0.2921015530D+02  0.2321844432D+00
      0.9286662960D+01  0.4679413484D+00
      0.3163926960D+01  0.3623119853D+00
 SP   3 1.00       0.000000000000
      0.7868272350D+01 -0.1193324198D+00  0.6899906659D-01
      0.1881288540D+01 -0.1608541517D+00  0.3164239610D+00
      0.5442492580D+00  0.1143456438D+01  0.7443082909D+00
 SP   1 1.00       0.000000000000
      0.1687144782D+00  0.1000000000D+01  0.1000000000D+01
 D   1 1.00       0.000000000000
      0.8000000000D+00  0.1000000000D+01
 ****
      2 0
 S   6 1.00       0.000000000000
      0.5484671660D+04  0.1831074430D-02
      0.8252349460D+03  0.1395017220D-01
      0.1880469580D+03  0.6844507810D-01
      0.5296450000D+02  0.2327143360D+00
      0.1689757040D+02  0.4701928980D+00
      0.5799635340D+01  0.3585208530D+00
 SP   3 1.00       0.000000000000
      0.1553961625D+02 -0.1107775495D+00  0.7087426823D-01
      0.3599933586D+01 -0.1480262627D+00  0.3397528391D+00
      0.1013761750D+01  0.1130767015D+01  0.7271585773D+00
 SP   1 1.00       0.000000000000
      0.2700058226D+00  0.1000000000D+01  0.1000000000D+01
 D   1 1.00       0.000000000000
      0.8000000000D+00  0.1000000000D+01
 ****
      3 0
 S   3 1.00       0.000000000000
      0.1873113696D+02  0.3349460434D-01
      0.2825394365D+01  0.2347269535D+00
      0.6401216923D+00  0.8137573261D+00
 S   1 1.00       0.000000000000
      0.1612777588D+00  0.1000000000D+01
 P   1 1.00       0.000000000000
      0.1100000000D+01  0.1000000000D+01
 ****
      4 0
 S   6 1.00       0.000000000000
      0.1941330000D+05  0.1851598923D-02
      0.2909420000D+04  0.1420619174D-01
      0.6613640000D+03  0.6999945928D-01
      0.1857590000D+03  0.2400788603D+00
      0.5919430000D+02  0.4847617180D+00
      0.2003100000D+02  0.3351998050D+00
 SP   6 1.00       0.000000000000
      0.3394780000D+03 -0.2782170105D-02  0.4564616191D-02
      0.8101010000D+02 -0.3604990135D-01  0.3369357188D-01
      0.2587800000D+02 -0.1166310044D+00  0.1397548834D+00
      0.9452210000D+01  0.9683280364D-01  0.3393617168D+00
      0.3665660000D+01  0.6144180231D+00  0.4509206237D+00
      0.1467460000D+01  0.4037980152D+00  0.2385858009D+00
 SP   3 1.00       0.000000000000
      0.2156230000D+01 -0.2529241139D+00 -0.1776531273D-01
      0.7489970000D+00  0.3285184468D-01  0.2740581964D+00
      0.2831450000D+00  0.1081254762D+01  0.7854215630D+00
 SP   1 1.00       0.000000000000
      0.9983170000D-01  0.1000000000D+01  0.1000000000D+01
 D   1 1.00       0.000000000000
      0.5500000000D+00  0.1000000000D+01
 ****
      5 0
 S   6 1.00       0.000000000000
      0.1941330000D+05  0.1851598923D-02
      0.2909420000D+04  0.1420619174D-01
      0.6613640000D+03  0.6999945928D-01
      0.1857590000D+03  0.2400788603D+00
      0.5919430000D+02  0.4847617180D+00
      0.2003100000D+02  0.3351998050D+00
 SP   6 1.00       0.000000000000
      0.3394780000D+03 -0.2782170105D-02  0.4564616191D-02
      0.8101010000D+02 -0.3604990135D-01  0.3369357188D-01
      0.2587800000D+02 -0.1166310044D+00  0.1397548834D+00
      0.9452210000D+01  0.9683280364D-01  0.3393617168D+00
      0.3665660000D+01  0.6144180231D+00  0.4509206237D+00
      0.1467460000D+01  0.4037980152D+00  0.2385858009D+00
 SP   3 1.00       0.000000000000
      0.2156230000D+01 -0.2529241139D+00 -0.1776531273D-01
      0.7489970000D+00  0.3285184468D-01  0.2740581964D+00
      0.2831450000D+00  0.1081254762D+01  0.7854215630D+00
 SP   1 1.00       0.000000000000
      0.9983170000D-01  0.1000000000D+01  0.1000000000D+01
 D   1 1.00       0.000000000000
      0.5500000000D+00  0.1000000000D+01
 ****
      6 0
 S   6 1.00       0.000000000000
      0.5484671660D+04  0.1831074430D-02
      0.8252349460D+03  0.1395017220D-01
      0.1880469580D+03  0.6844507810D-01
      0.5296450000D+02  0.2327143360D+00
      0.1689757040D+02  0.4701928980D+00
      0.5799635340D+01  0.3585208530D+00
 SP   3 1.00       0.000000000000
      0.1553961625D+02 -0.1107775495D+00  0.7087426823D-01
      0.3599933586D+01 -0.1480262627D+00  0.3397528391D+00
      0.1013761750D+01  0.1130767015D+01  0.7271585773D+00
 SP   1 1.00       0.000000000000
      0.2700058226D+00  0.1000000000D+01  0.1000000000D+01
 D   1 1.00       0.000000000000
      0.8000000000D+00  0.1000000000D+01
 ****
      7 0
 S   3 1.00       0.000000000000
      0.1873113696D+02  0.3349460434D-01
      0.2825394365D+01  0.2347269535D+00
      0.6401216923D+00  0.8137573261D+00
 S   1 1.00       0.000000000000
      0.1612777588D+00  0.1000000000D+01
 P   1 1.00       0.000000000000
      0.1100000000D+01  0.1000000000D+01
 ****
      8 0
 S   6 1.00       0.000000000000
      0.5484671660D+04  0.1831074430D-02
      0.8252349460D+03  0.1395017220D-01
      0.1880469580D+03  0.6844507810D-01
      0.5296450000D+02  0.2327143360D+00
      0.1689757040D+02  0.4701928980D+00
      0.5799635340D+01  0.3585208530D+00
 SP   3 1.00       0.000000000000
      0.1553961625D+02 -0.1107775495D+00  0.7087426823D-01
      0.3599933586D+01 -0.1480262627D+00  0.3397528391D+00
      0.1013761750D+01  0.1130767015D+01  0.7271585773D+00
 SP   1 1.00       0.000000000000
      0.2700058226D+00  0.1000000000D+01  0.1000000000D+01
 D   1 1.00       0.000000000000
      0.8000000000D+00  0.1000000000D+01
 ****
      9 0
 S   3 1.00       0.000000000000
      0.1873113696D+02  0.3349460434D-01
      0.2825394365D+01  0.2347269535D+00
      0.6401216923D+00  0.8137573261D+00
 S   1 1.00       0.000000000000
      0.1612777588D+00  0.1000000000D+01
 P   1 1.00       0.000000000000
      0.1100000000D+01  0.1000000000D+01
 ****
     10 0
 S   6 1.00       0.000000000000
      0.5484671660D+04  0.1831074430D-02
      0.8252349460D+03  0.1395017220D-01
      0.1880469580D+03  0.6844507810D-01
      0.5296450000D+02  0.2327143360D+00
      0.1689757040D+02  0.4701928980D+00
      0.5799635340D+01  0.3585208530D+00
 SP   3 1.00       0.000000000000
      0.1553961625D+02 -0.1107775495D+00  0.7087426823D-01
      0.3599933586D+01 -0.1480262627D+00  0.3397528391D+00
      0.1013761750D+01  0.1130767015D+01  0.7271585773D+00
 SP   1 1.00       0.000000000000
      0.2700058226D+00  0.1000000000D+01  0.1000000000D+01
 D   1 1.00       0.000000000000
      0.8000000000D+00  0.1000000000D+01
 ****
     11 0
 S   3 1.00       0.000000000000
      0.1873113696D+02  0.3349460434D-01
      0.2825394365D+01  0.2347269535D+00
      0.6401216923D+00  0.8137573261D+00
 S   1 1.00       0.000000000000
      0.1612777588D+00  0.1000000000D+01
 P   1 1.00       0.000000000000
      0.1100000000D+01  0.1000000000D+01
 ****
     12 0
 S   6 1.00       0.000000000000
      0.5484671660D+04  0.1831074430D-02
      0.8252349460D+03  0.1395017220D-01
      0.1880469580D+03  0.6844507810D-01
      0.5296450000D+02  0.2327143360D+00
      0.1689757040D+02  0.4701928980D+00
      0.5799635340D+01  0.3585208530D+00
 SP   3 1.00       0.000000000000
      0.1553961625D+02 -0.1107775495D+00  0.7087426823D-01
      0.3599933586D+01 -0.1480262627D+00  0.3397528391D+00
      0.1013761750D+01  0.1130767015D+01  0.7271585773D+00
 SP   1 1.00       0.000000000000
      0.2700058226D+00  0.1000000000D+01  0.1000000000D+01
 D   1 1.00       0.000000000000
      0.8000000000D+00  0.1000000000D+01
 ****
     13 0
 S   3 1.00       0.000000000000
      0.1873113696D+02  0.3349460434D-01
      0.2825394365D+01  0.2347269535D+00
      0.6401216923D+00  0.8137573261D+00
 S   1 1.00       0.000000000000
      0.1612777588D+00  0.1000000000D+01
 P   1 1.00       0.000000000000
      0.1100000000D+01  0.1000000000D+01
 ****
     14 0
 S   6 1.00       0.000000000000
      0.5484671660D+04  0.1831074430D-02
      0.8252349460D+03  0.1395017220D-01
      0.1880469580D+03  0.6844507810D-01
      0.5296450000D+02  0.2327143360D+00
      0.1689757040D+02  0.4701928980D+00
      0.5799635340D+01  0.3585208530D+00
 SP   3 1.00       0.000000000000
      0.1553961625D+02 -0.1107775495D+00  0.7087426823D-01
      0.3599933586D+01 -0.1480262627D+00  0.3397528391D+00
      0.1013761750D+01  0.1130767015D+01  0.7271585773D+00
 SP   1 1.00       0.000000000000
      0.2700058226D+00  0.1000000000D+01  0.1000000000D+01
 D   1 1.00       0.000000000000
      0.8000000000D+00  0.1000000000D+01
 ****
     15 0
 S   6 1.00       0.000000000000
      0.5484671660D+04  0.1831074430D-02
      0.8252349460D+03  0.1395017220D-01
      0.1880469580D+03  0.6844507810D-01
      0.5296450000D+02  0.2327143360D+00
      0.1689757040D+02  0.4701928980D+00
      0.5799635340D+01  0.3585208530D+00
 SP   3 1.00       0.000000000000
      0.1553961625D+02 -0.1107775495D+00  0.7087426823D-01
      0.3599933586D+01 -0.1480262627D+00  0.3397528391D+00
      0.1013761750D+01  0.1130767015D+01  0.7271585773D+00
 SP   1 1.00       0.000000000000
      0.2700058226D+00  0.1000000000D+01  0.1000000000D+01
 D   1 1.00       0.000000000000
      0.8000000000D+00  0.1000000000D+01
 ****
     16 0
 S   6 1.00       0.000000000000
      0.3047524880D+04  0.1834737132D-02
      0.4573695180D+03  0.1403732281D-01
      0.1039486850D+03  0.6884262226D-01
      0.2921015530D+02  0.2321844432D+00
      0.9286662960D+01  0.4679413484D+00
      0.3163926960D+01  0.3623119853D+00
 SP   3 1.00       0.000000000000
      0.7868272350D+01 -0.1193324198D+00  0.6899906659D-01
      0.1881288540D+01 -0.1608541517D+00  0.3164239610D+00
      0.5442492580D+00  0.1143456438D+01  0.7443082909D+00
 SP   1 1.00       0.000000000000
      0.1687144782D+00  0.1000000000D+01  0.1000000000D+01
 D   1 1.00       0.000000000000
      0.8000000000D+00  0.1000000000D+01
 ****
     17 0
 S   6 1.00       0.000000000000
      0.3047524880D+04  0.1834737132D-02
      0.4573695180D+03  0.1403732281D-01
      0.1039486850D+03  0.6884262226D-01
      0.2921015530D+02  0.2321844432D+00
      0.9286662960D+01  0.4679413484D+00
      0.3163926960D+01  0.3623119853D+00
 SP   3 1.00       0.000000000000
      0.7868272350D+01 -0.1193324198D+00  0.6899906659D-01
      0.1881288540D+01 -0.1608541517D+00  0.3164239610D+00
      0.5442492580D+00  0.1143456438D+01  0.7443082909D+00
 SP   1 1.00       0.000000000000
      0.1687144782D+00  0.1000000000D+01  0.1000000000D+01
 D   1 1.00       0.000000000000
      0.8000000000D+00  0.1000000000D+01
 ****
     18 0
 S   3 1.00       0.000000000000
      0.1873113696D+02  0.3349460434D-01
      0.2825394365D+01  0.2347269535D+00
      0.6401216923D+00  0.8137573261D+00
 S   1 1.00       0.000000000000
      0.1612777588D+00  0.1000000000D+01
 P   1 1.00       0.000000000000
      0.1100000000D+01  0.1000000000D+01
 ****
     19 0
 S   3 1.00       0.000000000000
      0.1873113696D+02  0.3349460434D-01
      0.2825394365D+01  0.2347269535D+00
      0.6401216923D+00  0.8137573261D+00
 S   1 1.00       0.000000000000
      0.1612777588D+00  0.1000000000D+01
 P   1 1.00       0.000000000000
      0.1100000000D+01  0.1000000000D+01
 ****
     20 0
 S   6 1.00       0.000000000000
      0.3047524880D+04  0.1834737132D-02
      0.4573695180D+03  0.1403732281D-01
      0.1039486850D+03  0.6884262226D-01
      0.2921015530D+02  0.2321844432D+00
      0.9286662960D+01  0.4679413484D+00
      0.3163926960D+01  0.3623119853D+00
 SP   3 1.00       0.000000000000
      0.7868272350D+01 -0.1193324198D+00  0.6899906659D-01
      0.1881288540D+01 -0.1608541517D+00  0.3164239610D+00
      0.5442492580D+00  0.1143456438D+01  0.7443082909D+00
 SP   1 1.00       0.000000000000
      0.1687144782D+00  0.1000000000D+01  0.1000000000D+01
 D   1 1.00       0.000000000000
      0.8000000000D+00  0.1000000000D+01
 ****
     21 0
 S   3 1.00       0.000000000000
      0.1873113696D+02  0.3349460434D-01
      0.2825394365D+01  0.2347269535D+00
      0.6401216923D+00  0.8137573261D+00
 S   1 1.00       0.000000000000
      0.1612777588D+00  0.1000000000D+01
 P   1 1.00       0.000000000000
      0.1100000000D+01  0.1000000000D+01
 ****
     22 0
 S   3 1.00       0.000000000000
      0.1873113696D+02  0.3349460434D-01
      0.2825394365D+01  0.2347269535D+00
      0.6401216923D+00  0.8137573261D+00
 S   1 1.00       0.000000000000
      0.1612777588D+00  0.1000000000D+01
 P   1 1.00       0.000000000000
      0.1100000000D+01  0.1000000000D+01
 ****
     23 0
 S   3 1.00       0.000000000000
      0.1873113696D+02  0.3349460434D-01
      0.2825394365D+01  0.2347269535D+00
      0.6401216923D+00  0.8137573261D+00
 S   1 1.00       0.000000000000
      0.1612777588D+00  0.1000000000D+01
 P   1 1.00       0.000000000000
      0.1100000000D+01  0.1000000000D+01
 ****
     24 0
 S   3 1.00       0.000000000000
      0.1873113696D+02  0.3349460434D-01
      0.2825394365D+01  0.2347269535D+00
      0.6401216923D+00  0.8137573261D+00
 S   1 1.00       0.000000000000
      0.1612777588D+00  0.1000000000D+01
 P   1 1.00       0.000000000000
      0.1100000000D+01  0.1000000000D+01
 ****
     25 0
 S   6 1.00       0.000000000000
      0.4173511460D+04  0.1834772160D-02
      0.6274579110D+03  0.1399462700D-01
      0.1429020930D+03  0.6858655181D-01
      0.4023432930D+02  0.2322408730D+00
      0.1282021290D+02  0.4690699481D+00
      0.4390437010D+01  0.3604551991D+00
 SP   3 1.00       0.000000000000
      0.1162636186D+02 -0.1149611817D+00  0.6757974388D-01
      0.2716279807D+01 -0.1691174786D+00  0.3239072959D+00
      0.7722183966D+00  0.1145851947D+01  0.7408951398D+00
 SP   1 1.00       0.000000000000
      0.2120314975D+00  0.1000000000D+01  0.1000000000D+01
 D   1 1.00       0.000000000000
      0.8000000000D+00  0.1000000000D+01
 ****
     26 0
 S   3 1.00       0.000000000000
      0.1873113696D+02  0.3349460434D-01
      0.2825394365D+01  0.2347269535D+00
      0.6401216923D+00  0.8137573261D+00
 S   1 1.00       0.000000000000
      0.1612777588D+00  0.1000000000D+01
 P   1 1.00       0.000000000000
      0.1100000000D+01  0.1000000000D+01
 ****
     27 0
 S   3 1.00       0.000000000000
      0.1873113696D+02  0.3349460434D-01
      0.2825394365D+01  0.2347269535D+00
      0.6401216923D+00  0.8137573261D+00
 S   1 1.00       0.000000000000
      0.1612777588D+00  0.1000000000D+01
 P   1 1.00       0.000000000000
      0.1100000000D+01  0.1000000000D+01
 ****

   283 basis functions,   531 primitive gaussians,   283 cartesian basis functions
    65 alpha electrons       65 beta electrons
       nuclear repulsion energy      1377.7297369403 Hartrees.
 NAtoms=   27 NActive=   27 NUniq=   27 SFac= 1.00D+00 NAtFMM=   60 NAOKFM=F Big=F
 ------------------------------------------------------------------------------
 Polarizable Continuum Model (PCM)
 =================================
 Model                : PCM.
 Atomic radii         : UFF (Universal Force Field).
 Polarization charges : Total charges.
 Charge compensation  : None.
 Solution method      : On-the-fly selection.
 Cavity type          : Scaled VdW (van der Waals Surface) (Alpha=1.100).
 Cavity algorithm     : GePol (No added spheres)
                        Default sphere list used, NSphG=   27.
                        Lebedev-Laikov grids with approx.  5.0 points / Ang**2.
                        Smoothing algorithm: York/Karplus (Gamma=1.0000).
                        Polarization charges: spherical gaussians, with
                                              point-specific exponents (IZeta= 3).
                        Self-potential: point-specific (ISelfS= 7).
                        Self-field    : sphere-specific E.n sum rule (ISelfD= 2).
 Solvent              : Water, Eps=  78.355300 Eps(inf)=   1.777849
 ------------------------------------------------------------------------------
 ExpMin= 9.98D-02 ExpMax= 1.94D+04 ExpMxC= 2.91D+03 IAcc=3 IRadAn=         5 AccDes= 0.00D+00
 Harris functional with IExCor=  402 and IRadAn=       5 diagonalized for initial guess.
 HarFok:  IExCor=  402 AccDes= 0.00D+00 IRadAn=         5 IDoV= 1 UseB2=F ITyADJ=14
 ICtDFT=  3500011 ScaDFX=  1.000000  1.000000  1.000000  1.000000
 FoFCou: FMM=F IPFlag=           0 FMFlag=      100000 FMFlg1=           0
         NFxFlg=           0 DoJE=T BraDBF=F KetDBF=T FulRan=T
         wScrn=  0.000000 ICntrl=       500 IOpCl=  0 I1Cent=   200000004 NGrid=           0
         NMat0=    1 NMatS0=      1 NMatT0=    0 NMatD0=    1 NMtDS0=    0 NMtDT0=    0
 Petite list used in FoFCou.
 Inv3:  Mode=1 IEnd=    13687488.
 Iteration    1 A*A^-1 deviation from unit magnitude is 7.77D-15 for    135.
 Iteration    1 A*A^-1 deviation from orthogonality  is 4.55D-15 for    596    256.
 Iteration    1 A^-1*A deviation from unit magnitude is 7.22D-15 for    561.
 Iteration    1 A^-1*A deviation from orthogonality  is 5.55D-12 for   1858   1791.
 Error on total polarization charges =  0.00579
 SCF Done:  E(RB3LYP) =  -1424.44942574     A.U. after   12 cycles
            NFock= 12  Conv=0.72D-08     -V/T= 2.0066

 **********************************************************************

            Population analysis using the SCF density.

 **********************************************************************

 Orbital symmetries:
       Occupied  (A) (A) (A) (A) (A) (A) (A) (A) (A) (A) (A) (A)
                 (A) (A) (A) (A) (A) (A) (A) (A) (A) (A) (A) (A)
                 (A) (A) (A) (A) (A) (A) (A) (A) (A) (A) (A) (A)
                 (A) (A) (A) (A) (A) (A) (A) (A) (A) (A) (A) (A)
                 (A) (A) (A) (A) (A) (A) (A) (A) (A) (A) (A) (A)
                 (A) (A) (A) (A) (A)
       Virtual   (A) (A) (A) (A) (A) (A) (A) (A) (A) (A) (A) (A)
                 (A) (A) (A) (A) (A) (A) (A) (A) (A) (A) (A) (A)
                 (A) (A) (A) (A) (A) (A) (A) (A) (A) (A) (A) (A)
                 (A) (A) (A) (A) (A) (A) (A) (A) (A) (A) (A) (A)
                 (A) (A) (A) (A) (A) (A) (A) (A) (A) (A) (A) (A)
                 (A) (A) (A) (A) (A) (A) (A) (A) (A) (A) (A) (A)
                 (A) (A) (A) (A) (A) (A) (A) (A) (A) (A) (A) (A)
                 (A) (A) (A) (A) (A) (A) (A) (A) (A) (A) (A) (A)
                 (A) (A) (A) (A) (A) (A) (A) (A) (A) (A) (A) (A)
                 (A) (A) (A) (A) (A) (A) (A) (A) (A) (A) (A) (A)
                 (A) (A) (A) (A) (A) (A) (A) (A) (A) (A) (A) (A)
                 (A) (A) (A) (A) (A) (A) (A) (A) (A) (A) (A) (A)
                 (A) (A) (A) (A) (A) (A) (A) (A) (A) (A) (A) (A)
                 (A) (A) (A) (A) (A) (A) (A) (A) (A) (A) (A) (A)
                 (A) (A) (A) (A) (A) (A) (A) (A) (A) (A) (A) (A)
                 (A) (A) (A) (A) (A) (A) (A) (A) (A) (A) (A) (A)
                 (A) (A) (A) (A) (A) (A) (A) (A) (A) (A) (A) (A)
                 (A) (A) (A) (A) (A) (A) (A) (A) (A) (A) (A) (A)
                 (A) (A)
 The electronic state is 1-A.
 Alpha  occ. eigenvalues --  -77.23500 -77.23104 -19.19904 -19.19876 -19.19607
 Alpha  occ. eigenvalues --  -19.19329 -19.17772 -19.12823 -19.12463 -14.31162
 Alpha  occ. eigenvalues --  -10.28035 -10.20711 -10.20476 -10.18712  -6.68400
 Alpha  occ. eigenvalues --   -6.68009  -4.84870  -4.84701  -4.84489  -4.84465
 Alpha  occ. eigenvalues --   -4.84312  -4.84108  -1.09524  -1.08749  -1.04924
 Alpha  occ. eigenvalues --   -1.04211  -1.03951  -0.97751  -0.97242  -0.87787
 Alpha  occ. eigenvalues --   -0.80329  -0.73156  -0.66484  -0.65691  -0.60485
 Alpha  occ. eigenvalues --   -0.58851  -0.57836  -0.56164  -0.53597  -0.50335
 Alpha  occ. eigenvalues --   -0.48361  -0.47404  -0.46980  -0.45802  -0.44418
 Alpha  occ. eigenvalues --   -0.43743  -0.42603  -0.42185  -0.40821  -0.39833
 Alpha  occ. eigenvalues --   -0.38855  -0.38419  -0.37607  -0.37325  -0.36208
 Alpha  occ. eigenvalues --   -0.35857  -0.35241  -0.34154  -0.33121  -0.32381
 Alpha  occ. eigenvalues --   -0.31165  -0.30686  -0.30449  -0.27241  -0.23938
 Alpha virt. eigenvalues --    0.02639   0.03807   0.05022   0.05321   0.07608
 Alpha virt. eigenvalues --    0.08781   0.10355   0.10854   0.11262   0.12131
 Alpha virt. eigenvalues --    0.13104   0.14153   0.14328   0.14772   0.14947
 Alpha virt. eigenvalues --    0.16671   0.17049   0.18354   0.19781   0.20225
 Alpha virt. eigenvalues --    0.21701   0.22798   0.24054   0.25345   0.26775
 Alpha virt. eigenvalues --    0.29304   0.33013   0.34390   0.37945   0.38422
 Alpha virt. eigenvalues --    0.39312   0.39731   0.42547   0.43640   0.49409
 Alpha virt. eigenvalues --    0.51538   0.53330   0.55106   0.56760   0.59028
 Alpha virt. eigenvalues --    0.60032   0.61265   0.63879   0.67335   0.69253
 Alpha virt. eigenvalues --    0.72190   0.72836   0.73845   0.74921   0.75363
 Alpha virt. eigenvalues --    0.76449   0.77715   0.78066   0.78814   0.79577
 Alpha virt. eigenvalues --    0.81214   0.83699   0.83939   0.85303   0.86358
 Alpha virt. eigenvalues --    0.87061   0.87701   0.88767   0.89355   0.90022
 Alpha virt. eigenvalues --    0.90736   0.91081   0.92012   0.93720   0.94243
 Alpha virt. eigenvalues --    0.95371   0.95588   0.96584   0.97224   0.98671
 Alpha virt. eigenvalues --    0.99015   1.01156   1.02393   1.03838   1.04537
 Alpha virt. eigenvalues --    1.06168   1.07771   1.08682   1.09710   1.12773
 Alpha virt. eigenvalues --    1.14496   1.15918   1.16435   1.18679   1.19738
 Alpha virt. eigenvalues --    1.20784   1.22524   1.26191   1.27075   1.31906
 Alpha virt. eigenvalues --    1.33256   1.34705   1.38891   1.41698   1.43041
 Alpha virt. eigenvalues --    1.46141   1.46873   1.48282   1.50752   1.53680
 Alpha virt. eigenvalues --    1.55930   1.56585   1.57887   1.59486   1.61138
 Alpha virt. eigenvalues --    1.61640   1.64872   1.66482   1.67521   1.69452
 Alpha virt. eigenvalues --    1.70126   1.70823   1.73285   1.75837   1.76902
 Alpha virt. eigenvalues --    1.79882   1.81970   1.82547   1.83237   1.84376
 Alpha virt. eigenvalues --    1.85091   1.86667   1.87767   1.88272   1.89977
 Alpha virt. eigenvalues --    1.91688   1.94123   1.94702   1.96646   1.98021
 Alpha virt. eigenvalues --    2.02189   2.05505   2.06077   2.08294   2.09076
 Alpha virt. eigenvalues --    2.10822   2.11737   2.14392   2.18310   2.20410
 Alpha virt. eigenvalues --    2.20489   2.22528   2.23606   2.25689   2.27582
 Alpha virt. eigenvalues --    2.29632   2.30417   2.31076   2.32914   2.33393
 Alpha virt. eigenvalues --    2.37748   2.39115   2.39521   2.41180   2.43204
 Alpha virt. eigenvalues --    2.45384   2.48202   2.49883   2.53703   2.56216
 Alpha virt. eigenvalues --    2.59403   2.60034   2.60472   2.60777   2.61304
 Alpha virt. eigenvalues --    2.61928   2.63054   2.64400   2.66524   2.68138
 Alpha virt. eigenvalues --    2.69039   2.70577   2.72152   2.73769   2.75711
 Alpha virt. eigenvalues --    2.77469   2.80816   2.81580   2.82149   2.87566
 Alpha virt. eigenvalues --    2.88571   2.89392   2.94401   2.95522   2.96992
 Alpha virt. eigenvalues --    3.00780   3.23254   3.28435   3.30183   3.33578
 Alpha virt. eigenvalues --    3.34680   3.35430   3.35865   3.37066   3.39099
 Alpha virt. eigenvalues --    3.45073   3.48353   3.50007   3.54189   3.55547
 Alpha virt. eigenvalues --    3.57810   3.84567   3.88613   4.00166   4.00966
 Alpha virt. eigenvalues --    4.04274   4.05970   4.18252   4.30226   4.33680
 Alpha virt. eigenvalues --    4.42299   4.55087   4.72974
     Molecular Orbital Coefficients:
                           1         2         3         4         5
                           O         O         O         O         O
     Eigenvalues --   -77.23500 -77.23104 -19.19904 -19.19876 -19.19607
   1 1   C  1S         -0.00004  -0.00003  -0.00002  -0.00003  -0.00005
   2        2S         -0.00003   0.00001  -0.00016  -0.00018  -0.00024
   3        2PX        -0.00002   0.00000  -0.00003  -0.00000  -0.00004
   4        2PY        -0.00004   0.00004   0.00003  -0.00004   0.00004
   5        2PZ        -0.00001   0.00000  -0.00005   0.00007   0.00000
   6        3S          0.00090   0.00060   0.00132   0.00109   0.00187
   7        3PX        -0.00033   0.00002  -0.00021  -0.00051   0.00019
   8        3PY        -0.00023   0.00046  -0.00082  -0.00009   0.00026
   9        3PZ         0.00011   0.00005   0.00020  -0.00008   0.00083
  10        4XX        -0.00012  -0.00008   0.00004   0.00001  -0.00001
  11        4YY        -0.00009  -0.00014  -0.00002   0.00001  -0.00001
  12        4ZZ        -0.00008  -0.00006   0.00000  -0.00004  -0.00010
  13        4XY        -0.00003  -0.00000  -0.00000   0.00004  -0.00002
  14        4XZ         0.00002  -0.00000  -0.00002  -0.00000   0.00001
  15        4YZ         0.00002  -0.00003  -0.00002  -0.00001   0.00001
  16 2   O  1S          0.00000   0.00000   0.00000  -0.00000  -0.00000
  17        2S         -0.00000   0.00002  -0.00006  -0.00018  -0.00027
  18        2PX         0.00001   0.00001  -0.00001   0.00004   0.00001
  19        2PY        -0.00000  -0.00000   0.00001   0.00005  -0.00003
  20        2PZ        -0.00001  -0.00001   0.00004  -0.00004  -0.00003
  21        3S         -0.00013  -0.00020   0.00039   0.00056   0.00119
  22        3PX         0.00002  -0.00006  -0.00017  -0.00013  -0.00015
  23        3PY         0.00007  -0.00009  -0.00002  -0.00025   0.00019
  24        3PZ        -0.00011  -0.00010  -0.00020   0.00017   0.00027
  25        4XX         0.00003  -0.00001   0.00002  -0.00013  -0.00019
  26        4YY        -0.00003   0.00002  -0.00003  -0.00013  -0.00017
  27        4ZZ        -0.00001   0.00000  -0.00008  -0.00014  -0.00016
  28        4XY         0.00002  -0.00002   0.00001   0.00005  -0.00002
  29        4XZ         0.00000  -0.00001   0.00001  -0.00002  -0.00002
  30        4YZ         0.00000  -0.00001   0.00002  -0.00003   0.00002
  31 3   H  1S         -0.00002  -0.00000   0.00003  -0.00007  -0.00004
  32        2S         -0.00018  -0.00015  -0.00046   0.00030   0.00009
  33        3PX         0.00001  -0.00000   0.00001   0.00003  -0.00002
  34        3PY         0.00001  -0.00002   0.00006  -0.00000   0.00001
  35        3PZ        -0.00004  -0.00004  -0.00006   0.00001   0.00002
  36 4   P  1S          0.99625   0.00042   0.00001   0.00001  -0.00000
  37        2S          0.01417  -0.00001  -0.00001  -0.00000   0.00001
  38        2PX         0.00001   0.00001   0.00003  -0.00002   0.00001
  39        2PY        -0.00001   0.00001  -0.00003   0.00006  -0.00002
  40        2PZ        -0.00004   0.00000   0.00005   0.00003   0.00002
  41        3S         -0.02724   0.00004   0.00028   0.00032  -0.00003
  42        3PX        -0.00013  -0.00010   0.00001   0.00011  -0.00003
  43        3PY        -0.00005  -0.00005   0.00016  -0.00010   0.00012
  44        3PZ         0.00006   0.00000  -0.00016  -0.00014  -0.00019
  45        4S          0.00299   0.00019  -0.00334  -0.00316  -0.00050
  46        4PX         0.00015   0.00007   0.00010  -0.00050   0.00017
  47        4PY         0.00019  -0.00005  -0.00159   0.00134  -0.00049
  48        4PZ         0.00001  -0.00011   0.00138   0.00210   0.00034
  49        5XX         0.00943  -0.00004   0.00005  -0.00002  -0.00003
  50        5YY         0.00945  -0.00007   0.00003   0.00025   0.00014
  51        5ZZ         0.00948  -0.00001   0.00008  -0.00009   0.00000
  52        5XY        -0.00004  -0.00005  -0.00005  -0.00005  -0.00001
  53        5XZ         0.00001   0.00001   0.00025  -0.00006  -0.00003
  54        5YZ         0.00002   0.00001  -0.00008   0.00009  -0.00005
  55 5   P  1S         -0.00042   0.99625  -0.00000   0.00000   0.00001
  56        2S         -0.00001   0.01417  -0.00007   0.00003  -0.00003
  57        2PX        -0.00000  -0.00000   0.00000  -0.00000   0.00006
  58        2PY        -0.00001  -0.00000  -0.00000   0.00000  -0.00000
  59        2PZ        -0.00001  -0.00004   0.00000  -0.00000   0.00003
  60        3S          0.00013  -0.02726  -0.00023   0.00016   0.00020
  61        3PX         0.00004  -0.00004   0.00002   0.00001  -0.00012
  62        3PY         0.00009   0.00013   0.00008  -0.00005  -0.00009
  63        3PZ         0.00005   0.00007   0.00003   0.00001  -0.00013
  64        4S         -0.00023   0.00311   0.00163  -0.00079  -0.00285
  65        4PX         0.00007   0.00016  -0.00048   0.00044   0.00153
  66        4PY         0.00010  -0.00023  -0.00066   0.00036   0.00079
  67        4PZ        -0.00010   0.00002  -0.00017  -0.00003   0.00120
  68        5XX        -0.00004   0.00947  -0.00005   0.00001   0.00020
  69        5YY        -0.00010   0.00941  -0.00006   0.00001  -0.00004
  70        5ZZ        -0.00004   0.00950  -0.00003  -0.00000  -0.00007
  71        5XY        -0.00003   0.00001   0.00003  -0.00001  -0.00007
  72        5XZ        -0.00001   0.00000   0.00002  -0.00002   0.00012
  73        5YZ        -0.00000  -0.00003   0.00001  -0.00001  -0.00003
  74 6   O  1S         -0.00001   0.00002   0.99268  -0.00290   0.00068
  75        2S         -0.00005   0.00006   0.02578  -0.00030  -0.00010
  76        2PX        -0.00004   0.00002  -0.00016  -0.00003  -0.00001
  77        2PY         0.00005   0.00001  -0.00085  -0.00000   0.00003
  78        2PZ        -0.00007   0.00001   0.00031   0.00002  -0.00000
  79        3S          0.00072  -0.00026   0.01275   0.00142   0.00058
  80        3PX         0.00009  -0.00014   0.00057   0.00046   0.00004
  81        3PY        -0.00025  -0.00006   0.00025  -0.00008  -0.00008
  82        3PZ         0.00023  -0.00008   0.00029   0.00009   0.00006
  83        4XX        -0.00011   0.00005  -0.00826  -0.00008  -0.00001
  84        4YY         0.00000   0.00006  -0.00828  -0.00021   0.00000
  85        4ZZ        -0.00016   0.00005  -0.00826  -0.00010  -0.00004
  86        4XY         0.00008   0.00001  -0.00001   0.00000   0.00005
  87        4XZ        -0.00013  -0.00001  -0.00004  -0.00001  -0.00001
  88        4YZ         0.00006   0.00001   0.00002   0.00001   0.00002
  89 7   H  1S         -0.00010  -0.00004   0.00043   0.00002  -0.00011
  90        2S         -0.00021  -0.00005  -0.00093   0.00037   0.00002
  91        3PX        -0.00001  -0.00001  -0.00005   0.00003  -0.00004
  92        3PY        -0.00001  -0.00002  -0.00001  -0.00001  -0.00003
  93        3PZ        -0.00000  -0.00000  -0.00004   0.00003  -0.00002
  94 8   O  1S         -0.00001   0.00000   0.00282   0.99268  -0.00012
  95        2S         -0.00006   0.00001   0.00002   0.02573  -0.00000
  96        2PX         0.00002  -0.00000  -0.00002   0.00006  -0.00001
  97        2PY        -0.00007  -0.00000   0.00002   0.00015  -0.00000
  98        2PZ        -0.00005  -0.00000   0.00003   0.00093   0.00001
  99        3S          0.00081  -0.00009   0.00050   0.01293  -0.00000
 100        3PX        -0.00007   0.00001   0.00005  -0.00007   0.00002
 101        3PY         0.00023  -0.00001   0.00010   0.00068  -0.00000
 102        3PZ         0.00027   0.00002  -0.00015  -0.00039  -0.00007
 103        4XX        -0.00004   0.00001  -0.00010  -0.00825  -0.00000
 104        4YY        -0.00025   0.00001  -0.00009  -0.00829  -0.00001
 105        4ZZ         0.00002   0.00001  -0.00011  -0.00829  -0.00001
 106        4XY         0.00003   0.00000   0.00006   0.00002   0.00001
 107        4XZ         0.00002  -0.00000  -0.00004  -0.00000  -0.00000
 108        4YZ        -0.00009   0.00001   0.00003  -0.00003  -0.00001
 109 9   H  1S         -0.00012  -0.00000   0.00008   0.00044   0.00003
 110        2S         -0.00022  -0.00001  -0.00030  -0.00089  -0.00013
 111        3PX         0.00001  -0.00000   0.00001   0.00001  -0.00000
 112        3PY        -0.00001  -0.00000  -0.00001  -0.00007  -0.00001
 113        3PZ         0.00001  -0.00000  -0.00004   0.00002  -0.00000
 114 10  O  1S          0.00000  -0.00001  -0.00066   0.00010   0.99268
 115        2S          0.00003  -0.00004   0.00006  -0.00010   0.02575
 116        2PX        -0.00001  -0.00008  -0.00000  -0.00001   0.00047
 117        2PY        -0.00001  -0.00001   0.00001   0.00000   0.00079
 118        2PZ        -0.00001  -0.00004  -0.00002  -0.00001   0.00025
 119        3S         -0.00009   0.00073  -0.00054   0.00053   0.01283
 120        3PX         0.00003   0.00029  -0.00012   0.00009   0.00042
 121        3PY         0.00006   0.00015  -0.00002  -0.00007  -0.00071
 122        3PZ         0.00003   0.00016   0.00000   0.00006   0.00006
 123        4XX         0.00002  -0.00023   0.00008  -0.00007  -0.00830
 124        4YY        -0.00002   0.00003   0.00013  -0.00006  -0.00833
 125        4ZZ         0.00002  -0.00005   0.00006  -0.00006  -0.00827
 126        4XY        -0.00000   0.00007   0.00001  -0.00001   0.00001
 127        4XZ         0.00001  -0.00009   0.00000   0.00001  -0.00003
 128        4YZ        -0.00000   0.00003  -0.00001   0.00000  -0.00000
 129 11  H  1S          0.00001  -0.00011   0.00000  -0.00002   0.00049
 130        2S          0.00000  -0.00019  -0.00004   0.00004  -0.00085
 131        3PX        -0.00000  -0.00000  -0.00001  -0.00000  -0.00004
 132        3PY        -0.00001   0.00001   0.00003  -0.00001   0.00001
 133        3PZ        -0.00000  -0.00000  -0.00001  -0.00000  -0.00002
 134 12  O  1S          0.00000  -0.00000  -0.00007   0.00001   0.00049
 135        2S         -0.00000  -0.00002   0.00004  -0.00000  -0.00012
 136        2PX         0.00000   0.00003  -0.00000   0.00000  -0.00001
 137        2PY         0.00000   0.00002  -0.00001   0.00001   0.00001
 138        2PZ        -0.00000  -0.00007  -0.00001   0.00001   0.00004
 139        3S         -0.00001   0.00062  -0.00025   0.00002   0.00086
 140        3PX         0.00000  -0.00006   0.00006  -0.00002  -0.00021
 141        3PY        -0.00002  -0.00005   0.00009  -0.00004  -0.00020
 142        3PZ         0.00001   0.00033   0.00003  -0.00003  -0.00014
 143        4XX         0.00000  -0.00004   0.00003  -0.00000  -0.00021
 144        4YY         0.00000  -0.00007   0.00003   0.00000  -0.00007
 145        4ZZ         0.00000  -0.00008   0.00004  -0.00001  -0.00012
 146        4XY         0.00000  -0.00007  -0.00000   0.00000   0.00001
 147        4XZ        -0.00000   0.00014  -0.00000   0.00000  -0.00002
 148        4YZ        -0.00000   0.00011   0.00000   0.00000   0.00000
 149 13  H  1S          0.00000  -0.00011  -0.00002   0.00002   0.00008
 150        2S         -0.00002  -0.00024   0.00007  -0.00010  -0.00019
 151        3PX         0.00000   0.00002   0.00000   0.00000  -0.00002
 152        3PY         0.00000   0.00000  -0.00000   0.00001  -0.00001
 153        3PZ        -0.00000   0.00001   0.00001  -0.00000  -0.00005
 154 14  O  1S          0.00000   0.00002   0.00002  -0.00001  -0.00002
 155        2S          0.00000  -0.00000   0.00010  -0.00004   0.00004
 156        2PX        -0.00001   0.00004  -0.00003   0.00002   0.00005
 157        2PY        -0.00002   0.00001  -0.00003   0.00000   0.00004
 158        2PZ        -0.00001   0.00018  -0.00001   0.00000  -0.00003
 159        3S          0.00001   0.00026  -0.00051   0.00023  -0.00019
 160        3PX         0.00002  -0.00010   0.00014  -0.00010  -0.00033
 161        3PY         0.00003   0.00002   0.00013  -0.00004  -0.00017
 162        3PZ         0.00002  -0.00035   0.00012  -0.00005  -0.00009
 163        4XX         0.00002   0.00009   0.00007  -0.00002   0.00005
 164        4YY         0.00001   0.00009   0.00008  -0.00003   0.00007
 165        4ZZ         0.00001  -0.00014   0.00007  -0.00003   0.00009
 166        4XY        -0.00001  -0.00001  -0.00000  -0.00001   0.00003
 167        4XZ        -0.00001  -0.00005  -0.00001   0.00001   0.00005
 168        4YZ        -0.00000  -0.00006  -0.00001   0.00001   0.00001
 169 15  O  1S          0.00002   0.00001  -0.00004  -0.00001  -0.00002
 170        2S         -0.00003   0.00005  -0.00009   0.00013  -0.00014
 171        2PX        -0.00005   0.00002   0.00002   0.00000   0.00000
 172        2PY         0.00004   0.00002  -0.00007   0.00002  -0.00007
 173        2PZ         0.00018  -0.00000   0.00001  -0.00000   0.00004
 174        3S          0.00038  -0.00020   0.00053  -0.00069   0.00058
 175        3PX         0.00007  -0.00007  -0.00006   0.00002   0.00002
 176        3PY        -0.00012  -0.00006   0.00030  -0.00019   0.00025
 177        3PZ        -0.00036   0.00005  -0.00036  -0.00012  -0.00024
 178        4XX         0.00005   0.00004  -0.00006   0.00013  -0.00013
 179        4YY         0.00008   0.00003  -0.00003   0.00009  -0.00011
 180        4ZZ        -0.00015   0.00004   0.00004   0.00015  -0.00008
 181        4XY         0.00001  -0.00002   0.00002   0.00000   0.00001
 182        4XZ         0.00008   0.00001  -0.00000  -0.00001  -0.00002
 183        4YZ        -0.00004   0.00001  -0.00002   0.00003  -0.00002
 184 16  C  1S         -0.00001  -0.00002   0.00002  -0.00001   0.00002
 185        2S         -0.00003  -0.00005   0.00008  -0.00007   0.00011
 186        2PX         0.00004   0.00002  -0.00000  -0.00003  -0.00001
 187        2PY        -0.00000  -0.00004   0.00001  -0.00001   0.00000
 188        2PZ        -0.00000   0.00001   0.00003  -0.00003   0.00002
 189        3S         -0.00004   0.00033  -0.00065   0.00037  -0.00083
 190        3PX         0.00002   0.00017   0.00040  -0.00006   0.00050
 191        3PY        -0.00014  -0.00003  -0.00020  -0.00003  -0.00037
 192        3PZ         0.00014  -0.00006   0.00003   0.00011  -0.00010
 193        4XX        -0.00005  -0.00003  -0.00002   0.00002   0.00000
 194        4YY        -0.00002  -0.00005   0.00003   0.00002   0.00003
 195        4ZZ        -0.00003  -0.00004   0.00001  -0.00001   0.00003
 196        4XY         0.00001   0.00002   0.00001   0.00002   0.00003
 197        4XZ        -0.00001   0.00000  -0.00002  -0.00000  -0.00000
 198        4YZ        -0.00001   0.00001  -0.00000   0.00001   0.00001
 199 17  C  1S         -0.00001   0.00001  -0.00000   0.00000  -0.00001
 200        2S         -0.00003   0.00006  -0.00002   0.00001  -0.00004
 201        2PX         0.00002  -0.00001   0.00000   0.00001  -0.00001
 202        2PY         0.00000   0.00000   0.00000  -0.00000  -0.00001
 203        2PZ        -0.00000  -0.00001  -0.00000   0.00001  -0.00000
 204        3S          0.00018  -0.00022   0.00007  -0.00005   0.00025
 205        3PX        -0.00019   0.00030  -0.00005  -0.00009   0.00002
 206        3PY        -0.00002   0.00000   0.00004   0.00005   0.00018
 207        3PZ        -0.00002   0.00006   0.00003  -0.00010   0.00013
 208        4XX        -0.00000  -0.00002   0.00000  -0.00001  -0.00001
 209        4YY        -0.00002   0.00001  -0.00001  -0.00000  -0.00000
 210        4ZZ        -0.00002   0.00001  -0.00000  -0.00000  -0.00001
 211        4XY         0.00001   0.00001  -0.00001  -0.00000  -0.00001
 212        4XZ        -0.00000   0.00000  -0.00000   0.00001   0.00000
 213        4YZ         0.00000   0.00000   0.00000   0.00000   0.00001
 214 18  H  1S          0.00000  -0.00002  -0.00000   0.00004  -0.00000
 215        2S         -0.00022  -0.00002   0.00000  -0.00006  -0.00004
 216        3PX         0.00004  -0.00001  -0.00001  -0.00001  -0.00003
 217        3PY        -0.00001   0.00001  -0.00001  -0.00002   0.00000
 218        3PZ        -0.00001   0.00001   0.00000  -0.00002  -0.00001
 219 19  H  1S         -0.00001   0.00002   0.00006  -0.00004   0.00008
 220        2S         -0.00022  -0.00019  -0.00004  -0.00004   0.00005
 221        3PX         0.00004   0.00001  -0.00001  -0.00001  -0.00001
 222        3PY         0.00001  -0.00004   0.00000  -0.00000   0.00001
 223        3PZ         0.00001   0.00001   0.00000  -0.00000   0.00000
 224 20  C  1S          0.00000   0.00000   0.00000  -0.00000   0.00000
 225        2S          0.00001   0.00001   0.00001  -0.00001   0.00002
 226        2PX        -0.00000   0.00000  -0.00001  -0.00001  -0.00001
 227        2PY         0.00000  -0.00000  -0.00000  -0.00000  -0.00001
 228        2PZ         0.00000   0.00000   0.00000  -0.00000   0.00000
 229        3S         -0.00006  -0.00011   0.00001   0.00011  -0.00003
 230        3PX        -0.00001   0.00006   0.00012  -0.00000   0.00016
 231        3PY         0.00004  -0.00001   0.00004   0.00008   0.00003
 232        3PZ        -0.00001  -0.00004  -0.00004   0.00001  -0.00005
 233        4XX        -0.00000   0.00001   0.00000   0.00000   0.00001
 234        4YY         0.00001   0.00000   0.00001   0.00000   0.00000
 235        4ZZ         0.00000   0.00000   0.00001  -0.00000   0.00001
 236        4XY        -0.00001   0.00000   0.00000  -0.00000   0.00001
 237        4XZ         0.00000   0.00000  -0.00000  -0.00000   0.00000
 238        4YZ        -0.00000   0.00000  -0.00000  -0.00000  -0.00000
 239 21  H  1S         -0.00001   0.00004  -0.00000  -0.00001  -0.00001
 240        2S         -0.00001  -0.00002   0.00001  -0.00003   0.00006
 241        3PX         0.00001  -0.00001  -0.00000   0.00000  -0.00001
 242        3PY        -0.00000  -0.00000  -0.00000  -0.00000  -0.00001
 243        3PZ         0.00000  -0.00001   0.00000  -0.00000   0.00000
 244 22  H  1S         -0.00001   0.00001  -0.00000   0.00000  -0.00000
 245        2S          0.00004  -0.00013  -0.00006   0.00001  -0.00032
 246        3PX         0.00001   0.00001   0.00001   0.00001   0.00001
 247        3PY        -0.00001  -0.00000   0.00000  -0.00001   0.00001
 248        3PZ        -0.00000  -0.00001   0.00000   0.00001   0.00000
 249 23  H  1S          0.00000   0.00000   0.00001  -0.00000   0.00001
 250        2S          0.00003   0.00005   0.00002  -0.00001   0.00002
 251        3PX         0.00000  -0.00000  -0.00001  -0.00000  -0.00001
 252        3PY        -0.00000   0.00000  -0.00000  -0.00000  -0.00000
 253        3PZ        -0.00000  -0.00000  -0.00000   0.00000   0.00000
 254 24  H  1S         -0.00000   0.00000   0.00001  -0.00000   0.00001
 255        2S          0.00005  -0.00000   0.00000   0.00005   0.00001
 256        3PX        -0.00000  -0.00000  -0.00001  -0.00000  -0.00001
 257        3PY         0.00000  -0.00000  -0.00000   0.00000  -0.00000
 258        3PZ         0.00000   0.00000   0.00000   0.00000   0.00000
 259 25  N  1S         -0.00000   0.00000   0.00000   0.00000   0.00001
 260        2S         -0.00001   0.00001   0.00001   0.00001   0.00002
 261        2PX         0.00000  -0.00000   0.00000   0.00000  -0.00000
 262        2PY        -0.00000   0.00000  -0.00000  -0.00000  -0.00000
 263        2PZ         0.00000   0.00000   0.00000   0.00000  -0.00000
 264        3S          0.00005  -0.00007  -0.00011  -0.00005  -0.00017
 265        3PX        -0.00004   0.00004   0.00003   0.00002   0.00005
 266        3PY         0.00001  -0.00001   0.00003   0.00001   0.00002
 267        3PZ         0.00001  -0.00000  -0.00002  -0.00001  -0.00002
 268        4XX        -0.00000   0.00000   0.00000   0.00000   0.00001
 269        4YY        -0.00001   0.00001   0.00001   0.00000   0.00001
 270        4ZZ        -0.00001   0.00001   0.00001   0.00000   0.00002
 271        4XY         0.00000  -0.00000  -0.00000  -0.00000  -0.00000
 272        4XZ        -0.00000  -0.00000   0.00000   0.00000   0.00000
 273        4YZ         0.00000  -0.00000   0.00000   0.00000   0.00000
 274 26  H  1S         -0.00001   0.00000   0.00000   0.00000  -0.00000
 275        2S         -0.00001   0.00001   0.00000  -0.00000   0.00003
 276        3PX         0.00000  -0.00000   0.00000   0.00000  -0.00000
 277        3PY        -0.00000   0.00000  -0.00000   0.00000  -0.00000
 278        3PZ         0.00000  -0.00000   0.00000   0.00000  -0.00000
 279 27  H  1S          0.00001  -0.00000   0.00001   0.00000   0.00001
 280        2S          0.00001  -0.00002  -0.00000   0.00001  -0.00001
 281        3PX        -0.00000   0.00000   0.00000  -0.00000   0.00000
 282        3PY         0.00000  -0.00000  -0.00000  -0.00000  -0.00000
 283        3PZ        -0.00000   0.00000   0.00000   0.00000   0.00000
                           6         7         8         9        10
                           O         O         O         O         O
     Eigenvalues --   -19.19329 -19.17772 -19.12823 -19.12463 -14.31162
   1 1   C  1S         -0.00002  -0.00002  -0.00000  -0.00002  -0.00000
   2        2S         -0.00015   0.00011  -0.00005  -0.00013  -0.00001
   3        2PX         0.00004   0.00006  -0.00001  -0.00002   0.00001
   4        2PY         0.00001  -0.00004  -0.00004   0.00001   0.00000
   5        2PZ         0.00003  -0.00032  -0.00006  -0.00006  -0.00000
   6        3S          0.00090  -0.00089  -0.00001   0.00067   0.00013
   7        3PX        -0.00052  -0.00038  -0.00049   0.00032   0.00001
   8        3PY         0.00088   0.00013   0.00038   0.00026  -0.00007
   9        3PZ        -0.00039   0.00103   0.00068   0.00064   0.00006
  10        4XX        -0.00004   0.00002   0.00004  -0.00003   0.00000
  11        4YY         0.00006   0.00001   0.00000   0.00002   0.00000
  12        4ZZ        -0.00001   0.00021  -0.00001  -0.00001  -0.00000
  13        4XY         0.00001   0.00000   0.00003  -0.00000  -0.00000
  14        4XZ        -0.00002  -0.00003  -0.00004   0.00000   0.00000
  15        4YZ         0.00001   0.00002   0.00000   0.00003  -0.00000
  16 2   O  1S         -0.00008   0.99275   0.00001   0.00001  -0.00000
  17        2S         -0.00001   0.02587  -0.00000   0.00002  -0.00001
  18        2PX         0.00000  -0.00089  -0.00003   0.00000  -0.00000
  19        2PY        -0.00002   0.00032  -0.00002   0.00004   0.00000
  20        2PZ        -0.00001   0.00041   0.00001   0.00002  -0.00000
  21        3S         -0.00021   0.01209   0.00025   0.00007   0.00005
  22        3PX         0.00015  -0.00001   0.00013  -0.00009   0.00000
  23        3PY         0.00011   0.00000   0.00006  -0.00015   0.00000
  24        3PZ        -0.00000   0.00047   0.00009  -0.00005   0.00001
  25        4XX        -0.00002  -0.00800   0.00001   0.00004  -0.00001
  26        4YY         0.00007  -0.00808   0.00002   0.00002  -0.00001
  27        4ZZ        -0.00001  -0.00815   0.00004   0.00003  -0.00000
  28        4XY         0.00000  -0.00002  -0.00001   0.00000  -0.00000
  29        4XZ         0.00001   0.00005   0.00002  -0.00001   0.00000
  30        4YZ         0.00001  -0.00002  -0.00000  -0.00002   0.00000
  31 3   H  1S         -0.00004   0.00030   0.00005   0.00003   0.00000
  32        2S          0.00038  -0.00124  -0.00016  -0.00024   0.00000
  33        3PX         0.00003  -0.00014  -0.00001  -0.00002  -0.00000
  34        3PY         0.00002   0.00005   0.00000   0.00001  -0.00000
  35        3PZ         0.00002  -0.00012  -0.00001  -0.00001   0.00000
  36 4   P  1S          0.00000   0.00000   0.00002  -0.00000   0.00000
  37        2S          0.00001   0.00004  -0.00007  -0.00004   0.00000
  38        2PX        -0.00000  -0.00000  -0.00002   0.00001   0.00000
  39        2PY        -0.00000  -0.00000  -0.00000   0.00000   0.00000
  40        2PZ        -0.00000   0.00000   0.00001   0.00001  -0.00000
  41        3S          0.00004   0.00027   0.00087  -0.00014   0.00001
  42        3PX         0.00002   0.00007   0.00012  -0.00008  -0.00001
  43        3PY         0.00001   0.00006   0.00006  -0.00005  -0.00000
  44        3PZ         0.00000  -0.00005   0.00011  -0.00008   0.00000
  45        4S         -0.00017  -0.00098  -0.00315   0.00064  -0.00008
  46        4PX        -0.00003  -0.00042  -0.00003   0.00010  -0.00003
  47        4PY        -0.00014   0.00011  -0.00066   0.00031  -0.00001
  48        4PZ        -0.00009   0.00040  -0.00234  -0.00006   0.00000
  49        5XX         0.00002   0.00003  -0.00025  -0.00005  -0.00001
  50        5YY        -0.00000  -0.00003  -0.00028  -0.00005  -0.00000
  51        5ZZ        -0.00001  -0.00004  -0.00017  -0.00002  -0.00000
  52        5XY        -0.00002  -0.00001  -0.00001  -0.00000  -0.00000
  53        5XZ         0.00003  -0.00000  -0.00004  -0.00002   0.00000
  54        5YZ         0.00002  -0.00001   0.00002  -0.00002  -0.00000
  55 5   P  1S          0.00001   0.00000  -0.00000   0.00002   0.00000
  56        2S          0.00002   0.00003  -0.00003  -0.00007   0.00000
  57        2PX        -0.00004  -0.00002  -0.00000  -0.00001  -0.00000
  58        2PY        -0.00002   0.00000  -0.00000   0.00002   0.00000
  59        2PZ         0.00005   0.00000  -0.00000   0.00001   0.00000
  60        3S          0.00046   0.00022  -0.00010   0.00094   0.00000
  61        3PX         0.00011   0.00014   0.00004   0.00008   0.00001
  62        3PY        -0.00006  -0.00007   0.00003  -0.00010  -0.00000
  63        3PZ        -0.00016  -0.00005   0.00001   0.00011  -0.00001
  64        4S         -0.00386  -0.00070  -0.00013  -0.00349  -0.00002
  65        4PX        -0.00031  -0.00003  -0.00015  -0.00088  -0.00004
  66        4PY        -0.00006   0.00027   0.00009   0.00036   0.00001
  67        4PZ         0.00236   0.00025  -0.00019  -0.00234  -0.00002
  68        5XX         0.00004   0.00001  -0.00001  -0.00026   0.00000
  69        5YY         0.00005   0.00000  -0.00002  -0.00029   0.00000
  70        5ZZ         0.00003  -0.00002  -0.00003  -0.00019   0.00000
  71        5XY         0.00008  -0.00002   0.00002  -0.00002  -0.00000
  72        5XZ        -0.00021  -0.00004  -0.00004   0.00003  -0.00000
  73        5YZ        -0.00013   0.00000  -0.00003   0.00001   0.00000
  74 6   O  1S          0.00009  -0.00004   0.00002   0.00003  -0.00000
  75        2S          0.00003  -0.00011  -0.00001   0.00007  -0.00000
  76        2PX         0.00002  -0.00001   0.00003   0.00000  -0.00000
  77        2PY        -0.00001  -0.00001  -0.00003   0.00001   0.00000
  78        2PZ        -0.00001   0.00003  -0.00004   0.00002  -0.00000
  79        3S         -0.00007   0.00051   0.00001  -0.00036   0.00002
  80        3PX        -0.00009   0.00021  -0.00010  -0.00006   0.00001
  81        3PY         0.00003   0.00006   0.00015  -0.00006   0.00000
  82        3PZ         0.00004  -0.00009   0.00034  -0.00012   0.00000
  83        4XX         0.00001  -0.00006  -0.00000   0.00006  -0.00000
  84        4YY         0.00004  -0.00006  -0.00000   0.00006  -0.00000
  85        4ZZ         0.00002  -0.00008   0.00004   0.00005  -0.00000
  86        4XY         0.00001  -0.00000   0.00002   0.00001  -0.00000
  87        4XZ         0.00001  -0.00001   0.00003  -0.00001   0.00000
  88        4YZ         0.00001  -0.00001  -0.00001  -0.00000  -0.00000
  89 7   H  1S         -0.00001   0.00000   0.00001  -0.00002   0.00000
  90        2S         -0.00003   0.00008  -0.00005  -0.00002  -0.00000
  91        3PX        -0.00000   0.00001   0.00001  -0.00001   0.00000
  92        3PY        -0.00001   0.00001   0.00000  -0.00001   0.00000
  93        3PZ        -0.00001   0.00002  -0.00001   0.00001  -0.00000
  94 8   O  1S         -0.00002  -0.00008   0.00006  -0.00000  -0.00000
  95        2S         -0.00001  -0.00017   0.00002  -0.00000  -0.00000
  96        2PX        -0.00000  -0.00001   0.00000   0.00000   0.00000
  97        2PY        -0.00001  -0.00003  -0.00000   0.00000  -0.00000
  98        2PZ        -0.00000   0.00001  -0.00005  -0.00000  -0.00000
  99        3S          0.00002   0.00076  -0.00009   0.00000   0.00002
 100        3PX         0.00002   0.00005  -0.00002  -0.00002  -0.00000
 101        3PY         0.00004   0.00024   0.00013  -0.00001   0.00001
 102        3PZ         0.00000  -0.00007   0.00036   0.00001  -0.00000
 103        4XX        -0.00001  -0.00012   0.00006  -0.00001  -0.00000
 104        4YY        -0.00001  -0.00010   0.00008   0.00000  -0.00000
 105        4ZZ        -0.00002  -0.00013   0.00004  -0.00001  -0.00000
 106        4XY         0.00000   0.00002  -0.00000   0.00000  -0.00000
 107        4XZ        -0.00000  -0.00000   0.00001  -0.00000   0.00000
 108        4YZ         0.00000  -0.00001   0.00002   0.00001   0.00000
 109 9   H  1S          0.00001  -0.00000  -0.00009   0.00000   0.00000
 110        2S          0.00000   0.00008   0.00030   0.00002   0.00000
 111        3PX        -0.00000  -0.00001   0.00000  -0.00000   0.00000
 112        3PY         0.00000   0.00001   0.00003   0.00000   0.00000
 113        3PZ        -0.00001  -0.00002   0.00004  -0.00000   0.00000
 114 10  O  1S         -0.00059  -0.00010  -0.00004   0.00005   0.00000
 115        2S         -0.00026  -0.00014  -0.00006   0.00003   0.00000
 116        2PX        -0.00001  -0.00002   0.00002   0.00002   0.00000
 117        2PY         0.00003   0.00002   0.00003  -0.00001   0.00000
 118        2PZ         0.00004   0.00002  -0.00003  -0.00007   0.00000
 119        3S          0.00151   0.00059   0.00022  -0.00020  -0.00002
 120        3PX         0.00041   0.00016  -0.00003   0.00003  -0.00000
 121        3PY        -0.00035  -0.00019  -0.00017   0.00002  -0.00000
 122        3PZ        -0.00016  -0.00008   0.00014   0.00041  -0.00000
 123        4XX        -0.00017  -0.00009  -0.00005   0.00007   0.00000
 124        4YY        -0.00021  -0.00012  -0.00009   0.00006   0.00000
 125        4ZZ        -0.00014  -0.00011  -0.00006   0.00005   0.00000
 126        4XY        -0.00005  -0.00002   0.00001  -0.00001  -0.00000
 127        4XZ         0.00002  -0.00001   0.00001   0.00004   0.00000
 128        4YZ         0.00002   0.00001  -0.00003  -0.00002   0.00000
 129 11  H  1S          0.00007   0.00003   0.00006  -0.00003   0.00000
 130        2S          0.00034   0.00003  -0.00001   0.00003  -0.00001
 131        3PX         0.00006  -0.00000   0.00001   0.00001  -0.00000
 132        3PY        -0.00004  -0.00003  -0.00003   0.00001  -0.00000
 133        3PZ         0.00001   0.00001  -0.00001  -0.00000  -0.00000
 134 12  O  1S          0.99268   0.00009  -0.00000   0.00005   0.00000
 135        2S          0.02570  -0.00003  -0.00000  -0.00003   0.00000
 136        2PX         0.00038  -0.00000  -0.00000  -0.00002  -0.00000
 137        2PY        -0.00003  -0.00001   0.00001   0.00000  -0.00000
 138        2PZ         0.00087  -0.00001  -0.00001  -0.00005   0.00000
 139        3S          0.01311   0.00017  -0.00001   0.00015   0.00000
 140        3PX        -0.00061   0.00004   0.00002   0.00011   0.00000
 141        3PY        -0.00046  -0.00001  -0.00002  -0.00007  -0.00000
 142        3PZ         0.00003   0.00003   0.00003   0.00042   0.00000
 143        4XX        -0.00828   0.00004  -0.00001   0.00003  -0.00000
 144        4YY        -0.00827   0.00002  -0.00000   0.00003   0.00000
 145        4ZZ        -0.00831   0.00000  -0.00000   0.00002   0.00000
 146        4XY        -0.00001   0.00001  -0.00000   0.00000  -0.00000
 147        4XZ         0.00002   0.00004   0.00000  -0.00001  -0.00000
 148        4YZ         0.00002   0.00001   0.00000  -0.00003   0.00000
 149 13  H  1S          0.00041  -0.00006  -0.00001  -0.00009  -0.00000
 150        2S         -0.00094   0.00000   0.00003   0.00021   0.00000
 151        3PX         0.00008   0.00003  -0.00000   0.00001  -0.00000
 152        3PY         0.00005   0.00001   0.00000  -0.00000   0.00000
 153        3PZ        -0.00000   0.00002   0.00000   0.00005   0.00000
 154 14  O  1S         -0.00003   0.00000   0.00013   0.99271  -0.00000
 155        2S          0.00005   0.00001  -0.00010   0.02552  -0.00001
 156        2PX        -0.00003  -0.00001   0.00001  -0.00017  -0.00000
 157        2PY        -0.00002   0.00000   0.00002  -0.00009   0.00000
 158        2PZ         0.00001  -0.00001   0.00000  -0.00082   0.00000
 159        3S         -0.00026  -0.00001   0.00049   0.01318   0.00004
 160        3PX         0.00013   0.00001  -0.00004  -0.00004   0.00000
 161        3PY         0.00007  -0.00003  -0.00009  -0.00023  -0.00000
 162        3PZ        -0.00029  -0.00002  -0.00007  -0.00059  -0.00001
 163        4XX         0.00005   0.00002  -0.00008  -0.00824  -0.00001
 164        4YY         0.00005   0.00001  -0.00008  -0.00824  -0.00001
 165        4ZZ         0.00011   0.00002  -0.00007  -0.00819  -0.00001
 166        4XY        -0.00003   0.00000   0.00002   0.00000   0.00000
 167        4XZ         0.00001   0.00000   0.00000   0.00000  -0.00000
 168        4YZ         0.00001  -0.00000   0.00000   0.00002   0.00000
 169 15  O  1S         -0.00001   0.00000   0.99271  -0.00017  -0.00000
 170        2S         -0.00003   0.00002   0.02556  -0.00005  -0.00001
 171        2PX         0.00000  -0.00001   0.00021  -0.00002  -0.00000
 172        2PY         0.00001   0.00000  -0.00018  -0.00003   0.00000
 173        2PZ         0.00001  -0.00000  -0.00080  -0.00000   0.00000
 174        3S          0.00015  -0.00008   0.01299   0.00012   0.00003
 175        3PX        -0.00000   0.00006   0.00031   0.00008   0.00001
 176        3PY        -0.00002  -0.00002  -0.00003   0.00008  -0.00000
 177        3PZ        -0.00006  -0.00002  -0.00051   0.00001  -0.00000
 178        4XX        -0.00002   0.00002  -0.00821  -0.00005  -0.00000
 179        4YY        -0.00002   0.00002  -0.00822  -0.00003  -0.00000
 180        4ZZ        -0.00001   0.00003  -0.00818  -0.00005  -0.00000
 181        4XY        -0.00001  -0.00001  -0.00001   0.00003  -0.00000
 182        4XZ        -0.00000  -0.00001  -0.00003  -0.00002  -0.00000
 183        4YZ        -0.00000   0.00001   0.00000   0.00000  -0.00000
 184 16  C  1S         -0.00003   0.00001  -0.00002  -0.00001   0.00000
 185        2S         -0.00014   0.00011  -0.00005  -0.00004   0.00003
 186        2PX         0.00001   0.00000   0.00009  -0.00001  -0.00001
 187        2PY        -0.00002   0.00001   0.00003  -0.00006   0.00000
 188        2PZ        -0.00001  -0.00009  -0.00002   0.00001  -0.00000
 189        3S          0.00103   0.00005   0.00006  -0.00023  -0.00032
 190        3PX        -0.00036  -0.00019  -0.00091   0.00023   0.00001
 191        3PY         0.00029  -0.00002  -0.00034   0.00022  -0.00007
 192        3PZ        -0.00001   0.00048  -0.00019   0.00007   0.00010
 193        4XX        -0.00003   0.00001  -0.00004  -0.00004   0.00000
 194        4YY        -0.00004   0.00003  -0.00003  -0.00003   0.00001
 195        4ZZ        -0.00006  -0.00004  -0.00002  -0.00002   0.00000
 196        4XY        -0.00001   0.00001  -0.00002  -0.00000   0.00000
 197        4XZ         0.00002  -0.00003   0.00004   0.00001   0.00000
 198        4YZ        -0.00001   0.00001  -0.00000   0.00002   0.00000
 199 17  C  1S          0.00001  -0.00002  -0.00002   0.00000   0.00000
 200        2S          0.00001  -0.00011  -0.00009   0.00003   0.00006
 201        2PX         0.00002  -0.00005   0.00000   0.00007   0.00001
 202        2PY         0.00001  -0.00002  -0.00001  -0.00003   0.00001
 203        2PZ         0.00000  -0.00002   0.00001  -0.00002   0.00000
 204        3S         -0.00032   0.00077   0.00073  -0.00045   0.00000
 205        3PX        -0.00008  -0.00006  -0.00040  -0.00036  -0.00035
 206        3PY        -0.00004   0.00008  -0.00008   0.00009  -0.00012
 207        3PZ        -0.00013  -0.00027   0.00013  -0.00001  -0.00012
 208        4XX         0.00002  -0.00000   0.00001  -0.00001  -0.00006
 209        4YY         0.00002  -0.00001  -0.00003  -0.00001   0.00000
 210        4ZZ         0.00001   0.00001  -0.00002  -0.00002  -0.00000
 211        4XY        -0.00001  -0.00001   0.00002   0.00003   0.00001
 212        4XZ         0.00000   0.00004  -0.00002  -0.00001  -0.00001
 213        4YZ        -0.00001   0.00000  -0.00001   0.00000  -0.00001
 214 18  H  1S         -0.00001   0.00007  -0.00005   0.00003   0.00000
 215        2S          0.00004   0.00008  -0.00023   0.00018   0.00004
 216        3PX         0.00000  -0.00002   0.00004  -0.00001  -0.00000
 217        3PY         0.00001   0.00001  -0.00001   0.00001   0.00000
 218        3PZ         0.00000  -0.00006  -0.00001   0.00000  -0.00000
 219 19  H  1S         -0.00003  -0.00005  -0.00006   0.00003   0.00000
 220        2S         -0.00019  -0.00029   0.00039   0.00006   0.00000
 221        3PX         0.00001   0.00003   0.00001  -0.00002  -0.00000
 222        3PY        -0.00002  -0.00001   0.00002   0.00002   0.00000
 223        3PZ         0.00000   0.00001  -0.00002   0.00001  -0.00000
 224 20  C  1S         -0.00000  -0.00000  -0.00000  -0.00001  -0.00001
 225        2S         -0.00001   0.00001  -0.00001  -0.00004   0.00006
 226        2PX         0.00000   0.00002   0.00001  -0.00002   0.00021
 227        2PY         0.00001  -0.00000   0.00000   0.00002   0.00009
 228        2PZ         0.00000   0.00003   0.00000   0.00001  -0.00010
 229        3S          0.00009  -0.00006  -0.00002   0.00042   0.00032
 230        3PX        -0.00013  -0.00002  -0.00011   0.00001   0.00012
 231        3PY        -0.00003  -0.00004  -0.00005   0.00006   0.00012
 232        3PZ        -0.00001  -0.00011   0.00003  -0.00024   0.00021
 233        4XX        -0.00000  -0.00001  -0.00001   0.00001   0.00007
 234        4YY         0.00000  -0.00001  -0.00001   0.00001   0.00001
 235        4ZZ        -0.00000  -0.00002  -0.00001  -0.00001   0.00002
 236        4XY        -0.00000   0.00001  -0.00001  -0.00001   0.00004
 237        4XZ        -0.00000  -0.00000   0.00000   0.00001  -0.00004
 238        4YZ         0.00000   0.00001  -0.00000  -0.00000  -0.00002
 239 21  H  1S          0.00002   0.00006  -0.00002   0.00003   0.00003
 240        2S         -0.00002  -0.00062  -0.00001   0.00000  -0.00014
 241        3PX        -0.00000   0.00002   0.00002   0.00003   0.00002
 242        3PY         0.00002   0.00000   0.00000  -0.00001   0.00001
 243        3PZ        -0.00001  -0.00006  -0.00000   0.00000  -0.00001
 244 22  H  1S         -0.00001  -0.00007  -0.00003  -0.00005   0.00002
 245        2S          0.00038   0.00005   0.00001   0.00044   0.00012
 246        3PX        -0.00003  -0.00001   0.00001  -0.00003   0.00002
 247        3PY         0.00001  -0.00000  -0.00000  -0.00001  -0.00000
 248        3PZ        -0.00002   0.00001  -0.00000   0.00000  -0.00000
 249 23  H  1S         -0.00001   0.00002   0.00000   0.00002  -0.00008
 250        2S          0.00003   0.00009  -0.00004   0.00006  -0.00013
 251        3PX         0.00000   0.00000   0.00001  -0.00000  -0.00004
 252        3PY         0.00001   0.00001   0.00000   0.00000  -0.00003
 253        3PZ        -0.00000  -0.00001   0.00000  -0.00000   0.00003
 254 24  H  1S         -0.00001  -0.00002  -0.00001  -0.00003  -0.00002
 255        2S         -0.00004  -0.00001   0.00000  -0.00010  -0.00002
 256        3PX         0.00001   0.00000   0.00000  -0.00001  -0.00005
 257        3PY        -0.00000  -0.00000   0.00000  -0.00001  -0.00004
 258        3PZ        -0.00000   0.00001  -0.00000   0.00001  -0.00000
 259 25  N  1S         -0.00000  -0.00000  -0.00001  -0.00000   0.99274
 260        2S         -0.00002  -0.00000  -0.00003   0.00000   0.03466
 261        2PX        -0.00000  -0.00000   0.00001   0.00000   0.00012
 262        2PY         0.00000   0.00000  -0.00000  -0.00001  -0.00025
 263        2PZ        -0.00000   0.00000   0.00000  -0.00000   0.00124
 264        3S          0.00012   0.00003   0.00017  -0.00007   0.00345
 265        3PX        -0.00002   0.00002  -0.00011   0.00004   0.00017
 266        3PY        -0.00001  -0.00000   0.00001   0.00010   0.00024
 267        3PZ         0.00002   0.00002   0.00001   0.00003  -0.00045
 268        4XX        -0.00001  -0.00001  -0.00001  -0.00001  -0.00813
 269        4YY        -0.00001  -0.00001  -0.00002  -0.00001  -0.00800
 270        4ZZ        -0.00001   0.00000  -0.00002   0.00000  -0.00811
 271        4XY        -0.00000   0.00000   0.00001  -0.00001  -0.00010
 272        4XZ        -0.00000  -0.00000  -0.00000  -0.00000   0.00010
 273        4YZ        -0.00000  -0.00000   0.00000   0.00000   0.00009
 274 26  H  1S          0.00000   0.00000  -0.00001  -0.00000   0.00016
 275        2S         -0.00004  -0.00001   0.00000  -0.00009  -0.00047
 276        3PX         0.00000  -0.00000   0.00000   0.00001   0.00005
 277        3PY         0.00000  -0.00000  -0.00000   0.00000   0.00018
 278        3PZ         0.00000   0.00000  -0.00000   0.00001   0.00011
 279 27  H  1S         -0.00001  -0.00000   0.00001   0.00001   0.00019
 280        2S          0.00001  -0.00001   0.00003   0.00003  -0.00041
 281        3PX        -0.00000  -0.00000  -0.00000  -0.00001   0.00016
 282        3PY        -0.00000  -0.00000   0.00001  -0.00000  -0.00013
 283        3PZ        -0.00000  -0.00000  -0.00000  -0.00000   0.00003
                          11        12        13        14        15
                           O         O         O         O         O
     Eigenvalues --   -10.28035 -10.20711 -10.20476 -10.18712  -6.68400
   1 1   C  1S          0.99331  -0.00003  -0.00142   0.00001   0.00012
   2        2S          0.05010  -0.00022  -0.00024  -0.00004   0.00083
   3        2PX        -0.00002  -0.00006  -0.00005  -0.00015  -0.00008
   4        2PY        -0.00001  -0.00004   0.00006  -0.00002   0.00006
   5        2PZ        -0.00060  -0.00001   0.00002  -0.00002   0.00015
   6        3S         -0.02191   0.00142   0.00464  -0.00025  -0.00451
   7        3PX        -0.00155   0.00102   0.00216   0.00026   0.00144
   8        3PY         0.00080  -0.00016  -0.00129   0.00008   0.00156
   9        3PZ         0.00036  -0.00014   0.00082  -0.00017  -0.00059
  10        4XX        -0.00859  -0.00000  -0.00026  -0.00007   0.00011
  11        4YY        -0.00857  -0.00008  -0.00023  -0.00003   0.00019
  12        4ZZ        -0.00834  -0.00004  -0.00023  -0.00002   0.00016
  13        4XY         0.00003  -0.00005   0.00013  -0.00000  -0.00011
  14        4XZ         0.00001   0.00002  -0.00006  -0.00001   0.00001
  15        4YZ        -0.00001   0.00000   0.00007  -0.00004   0.00001
  16 2   O  1S         -0.00015   0.00002  -0.00003   0.00003  -0.00008
  17        2S         -0.00043   0.00009  -0.00014   0.00014  -0.00038
  18        2PX         0.00001  -0.00000  -0.00007   0.00001   0.00006
  19        2PY        -0.00002   0.00001   0.00006  -0.00001   0.00008
  20        2PZ        -0.00013   0.00000  -0.00009   0.00001  -0.00003
  21        3S          0.00414  -0.00059   0.00003  -0.00060   0.00191
[...]
    15  O   -0.430633   0.000000   0.023925  -0.011912  -0.051215  -0.444194
    16  C   -0.047795   0.000000   0.025285   0.010973  -0.002987  -0.141952
    17  C   -0.053093   0.000000  -0.003997  -0.029546   0.022851  -0.155897
    18  H    0.036356   0.000000   0.016714  -0.133887  -0.036832   0.100705
    19  H    0.040509   0.000000   0.002498  -0.017169   0.143262   0.102014
    20  C   -0.005682   0.000000   0.037056   0.024589   0.001442  -0.062111
    21  H    0.026591   0.000000   0.015478   0.014248  -0.133310   0.088475
    22  H    0.028485   0.000000   0.034699   0.117629   0.062705   0.090473
    23  H    0.021414   0.000000  -0.007011  -0.026639   0.127107   0.082468
    24  H    0.032454   0.000000  -0.011437  -0.125702  -0.064831   0.096429
    25  N   -0.233375   0.000000  -0.029686  -0.065725   0.242294  -0.681038
    26  H    0.102392   0.000000   0.042523   0.142366   0.119052   0.287222
    27  H    0.105036   0.000000   0.141704  -0.119661   0.057765   0.289604
       Tot   0.000008   0.000000   0.170520  -0.160165   0.485532   0.000008
 Hirshfeld charges with hydrogens summed into heavy atoms:
              Q-H       Q-CM5   
     1  C    0.011588   0.080871
     2  O   -0.055375  -0.066834
     4  P    0.473134   0.430858
     5  P    0.466854   0.425433
     6  O   -0.010792  -0.008740
     8  O   -0.019318  -0.018645
    10  O   -0.018139  -0.012337
    12  O   -0.036570  -0.033384
    14  O   -0.434033  -0.449411
    15  O   -0.430633  -0.444194
    16  C    0.029071   0.060767
    17  C    0.001982   0.023051
    20  C    0.048185   0.116786
    25  N   -0.025946  -0.104212
 
 EQQ= 0.000000000000E+00 EQD= 0.000000000000E+00 EDD= 0.225919215255E-01
 EQQ+QD+DD= 0.225919215255E-01
 
 Orbital energies and kinetic energies (alpha):
                                 1                 2
   1         O               -77.235002        106.045369
   2         O               -77.231038        106.045329
   3         O               -19.199041         29.025087
   4         O               -19.198762         29.025201
   5         O               -19.196070         29.024820
   6         O               -19.193290         29.025056
   7         O               -19.177718         29.027830
   8         O               -19.128228         29.027604
   9         O               -19.124625         29.027405
  10         O               -14.311616         21.960661
  11         O               -10.280354         15.891533
  12         O               -10.207113         15.887013
  13         O               -10.204758         15.885670
  14         O               -10.187122         15.885535
  15         O                -6.683999         15.694035
  16         O                -6.680087         15.693971
  17         O                -4.848699         14.708655
  18         O                -4.847009         14.705726
  19         O                -4.844891         14.709388
  20         O                -4.844648         14.708208
  21         O                -4.843120         14.706387
  22         O                -4.841079         14.709282
  23         O                -1.095242          2.496025
  24         O                -1.087494          2.557614
  25         O                -1.049239          2.571579
  26         O                -1.042113          2.735240
  27         O                -1.039506          2.752238
  28         O                -0.977507          2.855390
  29         O                -0.972415          2.877975
  30         O                -0.877868          1.721390
  31         O                -0.803285          1.539172
  32         O                -0.731559          1.714078
  33         O                -0.664835          1.810983
  34         O                -0.656914          2.150355
  35         O                -0.604845          1.749050
  36         O                -0.588507          1.500715
  37         O                -0.578358          1.887609
  38         O                -0.561637          2.057396
  39         O                -0.535968          1.751780
  40         O                -0.503352          1.618104
  41         O                -0.483609          1.146787
  42         O                -0.474043          2.276909
  43         O                -0.469797          2.318943
  44         O                -0.458016          1.494230
  45         O                -0.444183          1.425705
  46         O                -0.437427          2.153411
  47         O                -0.426034          1.699122
  48         O                -0.421854          2.221063
  49         O                -0.408207          1.974890
  50         O                -0.398333          2.313703
  51         O                -0.388554          1.646058
  52         O                -0.384192          2.050043
  53         O                -0.376070          2.196833
  54         O                -0.373255          2.216662
  55         O                -0.362076          1.893496
  56         O                -0.358569          1.744123
  57         O                -0.352409          1.588814
  58         O                -0.341536          1.975222
  59         O                -0.331206          1.485269
  60         O                -0.323809          2.250619
  61         O                -0.311648          2.280108
  62         O                -0.306859          2.223218
  63         O                -0.304492          2.229901
  64         O                -0.272406          2.359632
  65         O                -0.239378          1.630821
  66         V                 0.026387          1.960583
  67         V                 0.038068          1.902533
  68         V                 0.050219          1.791564
  69         V                 0.053211          1.980722
  70         V                 0.076080          1.566364
  71         V                 0.087810          1.138812
  72         V                 0.103549          1.577667
  73         V                 0.108540          1.891862
  74         V                 0.112621          1.468199
  75         V                 0.121307          2.080618
  76         V                 0.131040          1.553520
  77         V                 0.141526          1.708015
  78         V                 0.143278          1.772367
  79         V                 0.147717          2.244060
  80         V                 0.149475          1.803453
  81         V                 0.166710          1.599333
  82         V                 0.170490          1.511955
  83         V                 0.183542          1.277054
  84         V                 0.197806          2.368809
  85         V                 0.202248          1.305581
  86         V                 0.217015          1.535495
  87         V                 0.227979          1.762898
  88         V                 0.240537          1.691828
  89         V                 0.253452          2.099820
  90         V                 0.267746          2.117048
  91         V                 0.293045          2.105954
  92         V                 0.330125          2.088246
  93         V                 0.343901          1.922479
  94         V                 0.379447          2.133684
  95         V                 0.384222          2.211034
  96         V                 0.393116          2.341315
  97         V                 0.397310          1.891839
  98         V                 0.425472          2.254195
  99         V                 0.436402          2.167879
 100         V                 0.494090          2.278785
 101         V                 0.515375          2.200312
 102         V                 0.533300          2.326684
 103         V                 0.551058          2.085342
 104         V                 0.567598          2.138124
 105         V                 0.590285          2.256964
 106         V                 0.600321          2.291771
 107         V                 0.612651          2.099150
 108         V                 0.638787          2.145666
 109         V                 0.673352          2.326822
 110         V                 0.692530          2.542453
 111         V                 0.721904          2.523581
 112         V                 0.728360          2.475878
 113         V                 0.738450          2.623766
 114         V                 0.749210          2.380646
 115         V                 0.753628          2.732884
 116         V                 0.764494          2.639207
 117         V                 0.777154          2.567381
 118         V                 0.780663          2.613965
 119         V                 0.788136          2.848560
 120         V                 0.795772          2.527406
 121         V                 0.812145          2.479588
 122         V                 0.836987          2.395342
 123         V                 0.839394          2.472826
 124         V                 0.853029          2.710827
 125         V                 0.863577          2.615384
 126         V                 0.870612          2.568942
 127         V                 0.877012          2.699928
 128         V                 0.887669          2.756907
 129         V                 0.893549          2.778181
 130         V                 0.900222          2.737272
 131         V                 0.907356          2.658806
 132         V                 0.910805          2.707797
 133         V                 0.920120          2.685918
 134         V                 0.937204          2.931238
 135         V                 0.942426          2.759921
 136         V                 0.953712          2.869071
 137         V                 0.955879          2.790779
 138         V                 0.965842          3.094525
 139         V                 0.972240          2.602170
 140         V                 0.986707          3.198383
 141         V                 0.990151          3.336145
 142         V                 1.011558          3.166353
 143         V                 1.023927          2.896247
 144         V                 1.038383          2.966994
 145         V                 1.045375          3.225574
 146         V                 1.061685          2.843462
 147         V                 1.077710          3.156425
 148         V                 1.086818          3.439295
 149         V                 1.097098          3.345566
 150         V                 1.127735          3.137198
 151         V                 1.144960          3.544188
 152         V                 1.159176          2.975772
 153         V                 1.164354          3.742418
 154         V                 1.186791          3.340596
 155         V                 1.197381          2.949570
 156         V                 1.207839          3.496951
 157         V                 1.225236          3.043722
 158         V                 1.261915          2.965127
 159         V                 1.270748          2.900162
 160         V                 1.319059          2.869062
 161         V                 1.332564          2.564097
 162         V                 1.347053          2.527497
 163         V                 1.388913          2.638336
 164         V                 1.416977          2.646193
 165         V                 1.430407          2.653184
 166         V                 1.461410          2.699156
 167         V                 1.468728          2.687614
 168         V                 1.482824          2.764912
 169         V                 1.507524          2.677875
 170         V                 1.536804          2.695040
 171         V                 1.559302          2.662504
 172         V                 1.565852          2.661279
 173         V                 1.578874          2.712195
 174         V                 1.594859          2.739519
 175         V                 1.611378          2.794280
 176         V                 1.616403          2.731612
 177         V                 1.648721          2.757268
 178         V                 1.664821          2.795475
 179         V                 1.675213          2.834146
 180         V                 1.694521          2.857700
 181         V                 1.701258          2.873262
 182         V                 1.708233          2.856339
 183         V                 1.732845          2.815620
 184         V                 1.758371          2.940715
 185         V                 1.769023          2.930107
 186         V                 1.798821          2.987806
 187         V                 1.819698          3.000769
 188         V                 1.825472          3.017001
 189         V                 1.832374          3.001877
 190         V                 1.843757          3.022825
 191         V                 1.850909          3.111186
 192         V                 1.866670          3.251893
 193         V                 1.877675          3.125921
 194         V                 1.882717          3.293064
 195         V                 1.899768          3.282211
 196         V                 1.916875          3.247044
 197         V                 1.941229          3.230333
 198         V                 1.947025          3.362158
 199         V                 1.966460          3.419531
 200         V                 1.980207          3.298494
 201         V                 2.021892          3.511455
 202         V                 2.055049          3.232438
 203         V                 2.060769          3.635009
 204         V                 2.082942          3.260701
 205         V                 2.090757          3.327901
 206         V                 2.108223          3.405896
 207         V                 2.117375          3.374816
 208         V                 2.143920          3.402347
 209         V                 2.183095          3.463427
 210         V                 2.204103          3.475312
 211         V                 2.204891          3.426305
 212         V                 2.225280          3.548353
 213         V                 2.236059          3.165970
 214         V                 2.256889          3.171783
 215         V                 2.275816          3.281439
 216         V                 2.296325          3.719384
 217         V                 2.304169          3.432383
 218         V                 2.310760          3.627491
 219         V                 2.329144          3.693506
 220         V                 2.333934          3.654077
 221         V                 2.377483          3.543869
 222         V                 2.391145          3.518145
 223         V                 2.395209          3.680323
 224         V                 2.411801          3.594704
 225         V                 2.432042          3.794296
 226         V                 2.453844          4.148342
 227         V                 2.482017          4.389392
 228         V                 2.498825          4.033696
 229         V                 2.537025          3.727578
 230         V                 2.562163          3.592171
 231         V                 2.594034          3.872615
 232         V                 2.600340          3.841101
 233         V                 2.604723          3.647614
 234         V                 2.607769          3.957293
 235         V                 2.613043          3.781335
 236         V                 2.619279          3.991484
 237         V                 2.630544          3.814999
 238         V                 2.643999          3.842110
 239         V                 2.665237          3.768018
 240         V                 2.681382          3.874441
 241         V                 2.690393          3.936615
 242         V                 2.705772          3.915409
 243         V                 2.721524          3.985282
 244         V                 2.737691          3.961331
 245         V                 2.757107          4.096668
 246         V                 2.774689          3.891705
 247         V                 2.808162          4.560214
 248         V                 2.815803          4.279314
 249         V                 2.821489          4.536888
 250         V                 2.875656          3.970718
 251         V                 2.885714          4.112550
 252         V                 2.893920          4.056122
 253         V                 2.944010          4.207749
 254         V                 2.955218          4.145239
 255         V                 2.969920          4.059440
 256         V                 3.007799          4.606556
 257         V                 3.232537          4.995750
 258         V                 3.284349          5.074574
 259         V                 3.301830          5.427039
 260         V                 3.335780          6.329426
 261         V                 3.346798          6.311944
 262         V                 3.354304          5.288696
 263         V                 3.358653          6.286412
 264         V                 3.370656          5.926937
 265         V                 3.390992          5.494477
 266         V                 3.450730          6.152375
 267         V                 3.483530          5.624278
 268         V                 3.500072          9.278397
 269         V                 3.541892          6.519245
 270         V                 3.555474          9.275320
 271         V                 3.578102          5.417371
 272         V                 3.845673          9.431497
 273         V                 3.886130          9.759007
 274         V                 4.001661          9.672656
 275         V                 4.009656          9.842732
 276         V                 4.042739         10.331104
 277         V                 4.059696         10.391486
 278         V                 4.182519         10.338167
 279         V                 4.302258         10.317681
 280         V                 4.336799         10.808389
 281         V                 4.422991         10.526476
 282         V                 4.550872         10.290189
 283         V                 4.729745         10.538710
 Total kinetic energy from orbitals= 1.415124087733D+03

 Test job not archived.
 1\1\GINC-BATAGIN2\SP\RB3LYP\6-31G(d,p)\C4H13N1O7P2\ORISON\22-Jan-2021\
 0\\#t B3LYP/6-31G(d,p) scrf=(solvent=water) # Gfinput IOP(6/7=3) Pop=h
 irshfeld Density Test # Units(Ang,Deg)\\w-alendronate-opt-g09.log\\0,1
 \C,0,0.22759,0.14706,-0.33605\O,0,0.14244,0.20912,-1.7513\H,0,0.99734,
 -0.06391,-2.12067\P,0,1.7528,1.07379,0.23326\P,0,0.29324,-1.63255,0.23
 573\O,0,2.7772,0.69408,-0.95586\H,0,3.4046,1.4049,-1.1633\O,0,1.47215,
 2.63387,-0.10221\H,0,1.28307,3.14832,0.69829\O,0,1.74992,-2.03915,-0.3
 2655\H,0,1.91307,-2.99616,-0.32896\O,0,-0.67436,-2.4556,-0.77065\H,0,-
 1.47247,-2.77113,-0.31948\O,0,0.00415,-1.86375,1.67776\O,0,2.1748,0.80
 631,1.63482\C,0,-1.01172,0.85985,0.24918\C,0,-2.3701,0.26816,-0.1534\H
 ,0,-0.96219,1.89644,-0.09998\H,0,-0.91942,0.8791,1.34031\C,0,-3.5244,1
 .19058,0.24862\H,0,-2.40402,0.10102,-1.23385\H,0,-2.52107,-0.70431,0.3
 3143\H,0,-3.45073,1.41336,1.32713\H,0,-3.41771,2.14878,-0.27471\N,0,-4
 .81289,0.60203,-0.14436\H,0,-4.99049,-0.21768,0.43474\H,0,-5.559,1.255
 41,0.08647\\Version=EM64L-G16RevA.03\State=1-A\HF=-1424.4494257\RMSD=7
 .162e-09\Dipole=-0.376898,0.7449914,-1.0018946\Quadrupole=4.6968763,10
 .7381626,-15.4350388,1.8178315,-14.8145781,5.3344198\PG=C01 [X(C4H13N1
 O7P2)]\\@


 THERE IS NO CURE FOR BIRTH AND DEATH SAVE TO ENJOY THE INTERVAL.

                               -- GEORGE SANTAYANA
 Job cpu time:       0 days  0 hours  9 minutes 19.1 seconds.
 Elapsed time:       0 days  0 hours  1 minutes 10.2 seconds.
 File lengths (MBytes):  RWF=    124 Int=      0 D2E=      0 Chk=      7 Scr=      1
 Normal termination of Gaussian 16 at Fri Jan 22 02:43:47 2021.
