 Entering Gaussian System, Link 0=g16
 Input=w-alendronate_anion_scf_g09.com
 Output=w-alendronate_anion_scf_g09.log
 Initial command:
 /usr/local//g16/l1.exe "/home/orison/scrgauss/Gau-22769.inp" -scrdir="/home/orison/scrgauss/"
 Entering Link 1 = /usr/local//g16/l1.exe PID=     22771.
  
 Copyright (c) 1988,1990,1992,1993,1995,1998,2003,2009,2016,
            Gaussian, Inc.  All Rights Reserved.
  
 This is part of the Gaussian(R) 16 program.  It is based on
 the Gaussian(R) 09 system (copyright 2009, Gaussian, Inc.),
 the Gaussian(R) 03 system (copyright 2003, Gaussian, Inc.),
 the Gaussian(R) 98 system (copyright 1998, Gaussian, Inc.),
 the Gaussian(R) 94 system (copyright 1995, Gaussian, Inc.),
 the Gaussian 92(TM) system (copyright 1992, Gaussian, Inc.),
 the Gaussian 90(TM) system (copyright 1990, Gaussian, Inc.),
 the Gaussian 88(TM) system (copyright 1988, Gaussian, Inc.),
 the Gaussian 86(TM) system (copyright 1986, Carnegie Mellon
 University), and the Gaussian 82(TM) system (copyright 1983,
 Carnegie Mellon University). Gaussian is a federally registered
 trademark of Gaussian, Inc.
  
 This software contains proprietary and confidential information,
 including trade secrets, belonging to Gaussian, Inc.
  
 This software is provided under written license and may be
 used, copied, transmitted, or stored only in accord with that
 written license.
  
 The following legend is applicable only to US Government
 contracts under FAR:
  
                    RESTRICTED RIGHTS LEGEND
  
 Use, reproduction and disclosure by the US Government is
 subject to restrictions as set forth in subparagraphs (a)
 and (c) of the Commercial Computer Software - Restricted
 Rights clause in FAR 52.227-19.
  
 Gaussian, Inc.
 340 Quinnipiac St., Bldg. 40, Wallingford CT 06492
  
  
 ---------------------------------------------------------------
 Warning -- This program may not be used in any manner that
 competes with the business of Gaussian, Inc. or will provide
 assistance to any competitor of Gaussian, Inc.  The licensee
 of this program is prohibited from giving any competitor of
 Gaussian, Inc. access to this program.  By using this program,
 the user acknowledges that Gaussian, Inc. is engaged in the
 business of creating and licensing software in the field of
 computational chemistry and represents and warrants to the
 licensee that it is not a competitor of Gaussian, Inc. and that
 it will not use this program in any manner prohibited above.
 ---------------------------------------------------------------
  

 Cite this work as:
 Gaussian 16, Revision A.03,
 M. J. Frisch, G. W. Trucks, H. B. Schlegel, G. E. Scuseria, 
 M. A. Robb, J. R. Cheeseman, G. Scalmani, V. Barone, 
 G. A. Petersson, H. Nakatsuji, X. Li, M. Caricato, A. V. Marenich, 
 J. Bloino, B. G. Janesko, R. Gomperts, B. Mennucci, H. P. Hratchian, 
 J. V. Ortiz, A. F. Izmaylov, J. L. Sonnenberg, D. Williams-Young, 
 F. Ding, F. Lipparini, F. Egidi, J. Goings, B. Peng, A. Petrone, 
 T. Henderson, D. Ranasinghe, V. G. Zakrzewski, J. Gao, N. Rega, 
 G. Zheng, W. Liang, M. Hada, M. Ehara, K. Toyota, R. Fukuda, 
 J. Hasegawa, M. Ishida, T. Nakajima, Y. Honda, O. Kitao, H. Nakai, 
 T. Vreven, K. Throssell, J. A. Montgomery, Jr., J. E. Peralta, 
 F. Ogliaro, M. J. Bearpark, J. J. Heyd, E. N. Brothers, K. N. Kudin, 
 V. N. Staroverov, T. A. Keith, R. Kobayashi, J. Normand, 
 K. Raghavachari, A. P. Rendell, J. C. Burant, S. S. Iyengar, 
 J. Tomasi, M. Cossi, J. M. Millam, M. Klene, C. Adamo, R. Cammi, 
 J. W. Ochterski, R. L. Martin, K. Morokuma, O. Farkas, 
 J. B. Foresman, and D. J. Fox, Gaussian, Inc., Wallingford CT, 2016.
 
 ******************************************
 Gaussian 16:  EM64L-G16RevA.03 25-Dec-2016
                22-Jan-2021 
 ******************************************
 %nproc=8
 Will use up to    8 processors via shared memory.
 %Mem=4GB
 ----------------------------------------------------------------------
 #t B3LYP/6-31G(d,p) scrf=(solvent=water) # Gfinput IOP(6/7=3) Pop=hirs
 hfeld Density Test # Units(Ang,Deg)
 ----------------------------------------------------------------------
 -------------------------
 w-alendronate-opt-g09.log
 -------------------------
 Symbolic Z-matrix:
 Charge = -1 Multiplicity = 2
 C                     0.22759   0.14706  -0.33605 
 O                     0.14244   0.20912  -1.7513 
 H                     0.99734  -0.06391  -2.12067 
 P                     1.7528    1.07379   0.23326 
 P                     0.29324  -1.63255   0.23573 
 O                     2.7772    0.69408  -0.95586 
 H                     3.4046    1.4049   -1.1633 
 O                     1.47215   2.63387  -0.10221 
 H                     1.28307   3.14832   0.69829 
 O                     1.74992  -2.03915  -0.32655 
 H                     1.91307  -2.99616  -0.32896 
 O                    -0.67436  -2.4556   -0.77065 
 H                    -1.47247  -2.77113  -0.31948 
 O                     0.00415  -1.86375   1.67776 
 O                     2.1748    0.80631   1.63482 
 C                    -1.01172   0.85985   0.24918 
 C                    -2.3701    0.26816  -0.1534 
 H                    -0.96219   1.89644  -0.09998 
 H                    -0.91942   0.8791    1.34031 
 C                    -3.5244    1.19058   0.24862 
 H                    -2.40402   0.10102  -1.23385 
 H                    -2.52107  -0.70431   0.33143 
 H                    -3.45073   1.41336   1.32713 
 H                    -3.41771   2.14878  -0.27471 
 N                    -4.81289   0.60203  -0.14436 
 H                    -4.99049  -0.21768   0.43474 
 H                    -5.559     1.25541   0.08647 
 
                    Distance matrix (angstroms):
                    1          2          3          4          5
     1  C    0.000000
     2  O    1.419167   0.000000
     3  H    1.954966   0.970481   0.000000
     4  P    1.873288   2.698035   2.721409   0.000000
     5  P    1.870362   2.713444   2.917021   3.074833   0.000000
     6  O    2.680281   2.794615   2.258148   1.614801   3.605988
     7  H    3.515664   3.523822   2.978063   2.188254   4.567707
     8  O    2.790669   3.219789   3.402593   1.620233   4.439186
     9  H    3.345364   3.992546   4.283293   2.177286   4.904125
    10  O    2.664037   3.109441   2.772511   3.162877   1.613505
    11  H    3.566613   3.928359   3.556245   4.111724   2.191382
    12  O    2.788589   2.954584   3.215170   4.399493   1.620636
    13  H    3.377323   3.679665   4.083294   5.048891   2.173098
    14  O    2.854595   4.009285   4.319019   3.711266   1.488784
    15  O    2.847906   3.994112   4.030806   1.487952   3.383158
    16  C    1.544815   2.399470   3.241272   2.772832   2.813389
    17  C    2.606918   2.978192   3.914087   4.218631   3.295072
    18  H    2.128764   2.606552   3.430148   2.856392   3.760662
    19  H    2.159096   3.336836   4.067139   2.899004   2.999838
    20  C    3.938045   4.290531   5.256749   5.278515   4.748116
    21  H    2.780924   2.600750   3.518935   4.514183   3.527059
    22  H    2.953894   3.502343   4.336141   4.630037   2.964984
    23  H    4.230806   4.882397   5.818503   5.328094   4.948336
    24  H    4.159190   4.314773   5.272213   5.305451   5.322608
    25  N    5.064601   5.224168   6.173172   6.593439   5.586625
    26  H    5.287297   5.595346   6.512133   6.868803   5.473506
    27  H    5.906910   6.080998   7.042561   7.315528   6.527733
                    6          7          8          9         10
     6  O    0.000000
     7  H    0.970529   0.000000
     8  O    2.488907   2.524013   0.000000
     9  H    3.315408   3.317517   0.970160   0.000000
    10  O    2.986952   3.911470   4.686641   5.308304   0.000000
    11  H    3.841562   4.721241   5.651820   6.261532   0.970820
    12  O    4.676329   5.629880   5.563903   6.115001   2.499558
    13  H    5.520177   6.475884   6.158897   6.608233   3.304488
    14  O    4.600897   5.506247   5.054889   5.264584   2.663782
    15  O    2.662162   3.114513   2.617435   2.675310   3.481973
    16  C    3.979386   4.668625   3.072496   3.271828   4.045037
    17  C    5.226858   5.971535   4.512437   4.729307   4.725275
    18  H    4.020104   4.521185   2.543584   2.691771   4.784950
    19  H    4.355643   5.024110   3.298437   3.226842   4.291851
    20  C    6.434862   7.074637   5.212646   5.210251   6.211315
    21  H    5.222455   5.953583   4.766616   5.158860   4.760120
    22  H    5.628879   6.465025   5.222767   5.426677   4.522841
    23  H    6.672070   7.293686   5.269479   5.080786   6.457650
    24  H    6.399768   6.920033   4.916889   4.903381   6.651755
    25  N    7.633903   8.319254   6.605443   6.659908   7.076687
    26  H    7.943682   8.698508   7.084163   7.124393   7.023563
    27  H    8.419844   9.051541   7.167484   7.125402   8.027766
                   11         12         13         14         15
    11  H    0.000000
    12  O    2.679942   0.000000
    13  H    3.393024   0.969584   0.000000
    14  O    2.992199   2.608711   2.644374   0.000000
    15  O    4.287623   4.954196   5.469913   3.441335   0.000000
    16  C    4.874162   3.485122   3.704009   3.238955   3.475165
    17  C    5.388149   3.267323   3.173422   3.679028   4.913599
    18  H    5.679532   4.412811   4.700508   4.270035   3.746815
    19  H    5.082037   3.954293   4.047832   2.913774   3.109056
    20  C    6.886833   4.738804   4.497588   4.880783   5.877933
    21  H    5.389677   3.121311   3.154854   4.258765   5.449064
    22  H    5.034907   2.773434   2.407279   3.087660   5.102156
    23  H    7.138407   5.203630   4.912718   4.774787   5.666548
    24  H    7.408817   5.382587   5.290697   5.623314   6.060091
    25  N    7.630176   5.183510   4.750503   5.709997   7.213531
    26  H    7.480797   5.009015   4.411963   5.403802   7.336902
    27  H    8.606989   6.194026   5.751308   6.573431   7.900047
                   16         17         18         19         20
    16  C    0.000000
    17  C    1.535371   0.000000
    18  H    1.094936   2.153221   0.000000
    19  H    1.095196   2.169998   1.763872   0.000000
    20  C    2.534353   1.531302   2.680425   2.841607   0.000000
    21  H    2.171106   1.093827   2.566723   3.071766   2.154091
    22  H    2.175201   1.097064   3.062698   2.467855   2.145725
    23  H    2.723439   2.161299   2.909096   2.587110   1.103740
    24  H    2.779315   2.156139   2.474628   3.234475   1.096998
    25  N    3.830175   2.465517   4.062679   4.176137   1.470045
    26  H    4.126271   2.729174   4.580680   4.312377   2.041386
    27  H    4.567351   3.346832   4.645034   4.820729   2.042080
                   21         22         23         24         25
    21  H    0.000000
    22  H    1.764188   0.000000
    23  H    3.062100   2.517978   0.000000
    24  H    2.478071   3.051474   1.762902   0.000000
    25  N    2.690846   2.680548   2.163104   2.087092   0.000000
    26  H    3.094445   2.519031   2.414024   2.928667   1.019227
    27  H    3.609676   3.623469   2.451324   2.348123   1.018267
                   26         27
    26  H    0.000000
    27  H    1.616938   0.000000
 Framework group  C1[X(C4H13NO7P2)]
 Deg. of freedom    75
                         Standard orientation:                         
 ---------------------------------------------------------------------
 Center     Atomic      Atomic             Coordinates (Angstroms)
 Number     Number       Type             X           Y           Z
 ---------------------------------------------------------------------
      1          6           0       -0.227590   -0.147061   -0.336049
      2          8           0       -0.142440   -0.209121   -1.751299
      3          1           0       -0.997340    0.063909   -2.120669
      4         15           0       -1.752800   -1.073792    0.233261
      5         15           0       -0.293241    1.632549    0.235731
      6          8           0       -2.777200   -0.694082   -0.955859
      7          1           0       -3.404600   -1.404902   -1.163299
      8          8           0       -1.472149   -2.633871   -0.102209
      9          1           0       -1.283069   -3.148321    0.698291
     10          8           0       -1.749921    2.039148   -0.326549
     11          1           0       -1.913071    2.996158   -0.328959
     12          8           0        0.674359    2.455599   -0.770649
     13          1           0        1.472469    2.771130   -0.319479
     14          8           0       -0.004151    1.863749    1.677761
     15          8           0       -2.174800   -0.806312    1.634821
     16          6           0        1.011720   -0.859850    0.249181
     17          6           0        2.370100   -0.268160   -0.153399
     18          1           0        0.962191   -1.896440   -0.099979
     19          1           0        0.919420   -0.879100    1.340311
     20          6           0        3.524400   -1.190579    0.248621
     21          1           0        2.404020   -0.101020   -1.233849
     22          1           0        2.521069    0.704310    0.331431
     23          1           0        3.450730   -1.413359    1.327131
     24          1           0        3.417711   -2.148779   -0.274709
     25          7           0        4.812890   -0.602029   -0.144359
     26          1           0        4.990490    0.217681    0.434741
     27          1           0        5.559000   -1.255409    0.086471
 ---------------------------------------------------------------------
 Rotational constants (GHZ):           0.7002564           0.4087084           0.3168227
 AO basis set in the form of general basis input (Overlap normalization):
      1 0
 S   6 1.00       0.000000000000
      0.3047524880D+04  0.1834737132D-02
      0.4573695180D+03  0.1403732281D-01
      0.1039486850D+03  0.6884262226D-01
      0.2921015530D+02  0.2321844432D+00
      0.9286662960D+01  0.4679413484D+00
      0.3163926960D+01  0.3623119853D+00
 SP   3 1.00       0.000000000000
      0.7868272350D+01 -0.1193324198D+00  0.6899906659D-01
      0.1881288540D+01 -0.1608541517D+00  0.3164239610D+00
      0.5442492580D+00  0.1143456438D+01  0.7443082909D+00
 SP   1 1.00       0.000000000000
      0.1687144782D+00  0.1000000000D+01  0.1000000000D+01
 D   1 1.00       0.000000000000
      0.8000000000D+00  0.1000000000D+01
 ****
      2 0
 S   6 1.00       0.000000000000
      0.5484671660D+04  0.1831074430D-02
      0.8252349460D+03  0.1395017220D-01
      0.1880469580D+03  0.6844507810D-01
      0.5296450000D+02  0.2327143360D+00
      0.1689757040D+02  0.4701928980D+00
      0.5799635340D+01  0.3585208530D+00
 SP   3 1.00       0.000000000000
      0.1553961625D+02 -0.1107775495D+00  0.7087426823D-01
      0.3599933586D+01 -0.1480262627D+00  0.3397528391D+00
      0.1013761750D+01  0.1130767015D+01  0.7271585773D+00
 SP   1 1.00       0.000000000000
      0.2700058226D+00  0.1000000000D+01  0.1000000000D+01
 D   1 1.00       0.000000000000
      0.8000000000D+00  0.1000000000D+01
 ****
      3 0
 S   3 1.00       0.000000000000
      0.1873113696D+02  0.3349460434D-01
      0.2825394365D+01  0.2347269535D+00
      0.6401216923D+00  0.8137573261D+00
 S   1 1.00       0.000000000000
      0.1612777588D+00  0.1000000000D+01
 P   1 1.00       0.000000000000
      0.1100000000D+01  0.1000000000D+01
 ****
      4 0
 S   6 1.00       0.000000000000
      0.1941330000D+05  0.1851598923D-02
      0.2909420000D+04  0.1420619174D-01
      0.6613640000D+03  0.6999945928D-01
      0.1857590000D+03  0.2400788603D+00
      0.5919430000D+02  0.4847617180D+00
      0.2003100000D+02  0.3351998050D+00
 SP   6 1.00       0.000000000000
      0.3394780000D+03 -0.2782170105D-02  0.4564616191D-02
      0.8101010000D+02 -0.3604990135D-01  0.3369357188D-01
      0.2587800000D+02 -0.1166310044D+00  0.1397548834D+00
      0.9452210000D+01  0.9683280364D-01  0.3393617168D+00
      0.3665660000D+01  0.6144180231D+00  0.4509206237D+00
      0.1467460000D+01  0.4037980152D+00  0.2385858009D+00
 SP   3 1.00       0.000000000000
      0.2156230000D+01 -0.2529241139D+00 -0.1776531273D-01
      0.7489970000D+00  0.3285184468D-01  0.2740581964D+00
      0.2831450000D+00  0.1081254762D+01  0.7854215630D+00
 SP   1 1.00       0.000000000000
      0.9983170000D-01  0.1000000000D+01  0.1000000000D+01
 D   1 1.00       0.000000000000
      0.5500000000D+00  0.1000000000D+01
 ****
      5 0
 S   6 1.00       0.000000000000
      0.1941330000D+05  0.1851598923D-02
      0.2909420000D+04  0.1420619174D-01
      0.6613640000D+03  0.6999945928D-01
      0.1857590000D+03  0.2400788603D+00
      0.5919430000D+02  0.4847617180D+00
      0.2003100000D+02  0.3351998050D+00
 SP   6 1.00       0.000000000000
      0.3394780000D+03 -0.2782170105D-02  0.4564616191D-02
      0.8101010000D+02 -0.3604990135D-01  0.3369357188D-01
      0.2587800000D+02 -0.1166310044D+00  0.1397548834D+00
      0.9452210000D+01  0.9683280364D-01  0.3393617168D+00
      0.3665660000D+01  0.6144180231D+00  0.4509206237D+00
      0.1467460000D+01  0.4037980152D+00  0.2385858009D+00
 SP   3 1.00       0.000000000000
      0.2156230000D+01 -0.2529241139D+00 -0.1776531273D-01
      0.7489970000D+00  0.3285184468D-01  0.2740581964D+00
      0.2831450000D+00  0.1081254762D+01  0.7854215630D+00
 SP   1 1.00       0.000000000000
      0.9983170000D-01  0.1000000000D+01  0.1000000000D+01
 D   1 1.00       0.000000000000
      0.5500000000D+00  0.1000000000D+01
 ****
      6 0
 S   6 1.00       0.000000000000
      0.5484671660D+04  0.1831074430D-02
      0.8252349460D+03  0.1395017220D-01
      0.1880469580D+03  0.6844507810D-01
      0.5296450000D+02  0.2327143360D+00
      0.1689757040D+02  0.4701928980D+00
      0.5799635340D+01  0.3585208530D+00
 SP   3 1.00       0.000000000000
      0.1553961625D+02 -0.1107775495D+00  0.7087426823D-01
      0.3599933586D+01 -0.1480262627D+00  0.3397528391D+00
      0.1013761750D+01  0.1130767015D+01  0.7271585773D+00
 SP   1 1.00       0.000000000000
      0.2700058226D+00  0.1000000000D+01  0.1000000000D+01
 D   1 1.00       0.000000000000
      0.8000000000D+00  0.1000000000D+01
 ****
      7 0
 S   3 1.00       0.000000000000
      0.1873113696D+02  0.3349460434D-01
      0.2825394365D+01  0.2347269535D+00
      0.6401216923D+00  0.8137573261D+00
 S   1 1.00       0.000000000000
      0.1612777588D+00  0.1000000000D+01
 P   1 1.00       0.000000000000
      0.1100000000D+01  0.1000000000D+01
 ****
      8 0
 S   6 1.00       0.000000000000
      0.5484671660D+04  0.1831074430D-02
      0.8252349460D+03  0.1395017220D-01
      0.1880469580D+03  0.6844507810D-01
      0.5296450000D+02  0.2327143360D+00
      0.1689757040D+02  0.4701928980D+00
      0.5799635340D+01  0.3585208530D+00
 SP   3 1.00       0.000000000000
      0.1553961625D+02 -0.1107775495D+00  0.7087426823D-01
      0.3599933586D+01 -0.1480262627D+00  0.3397528391D+00
      0.1013761750D+01  0.1130767015D+01  0.7271585773D+00
 SP   1 1.00       0.000000000000
      0.2700058226D+00  0.1000000000D+01  0.1000000000D+01
 D   1 1.00       0.000000000000
      0.8000000000D+00  0.1000000000D+01
 ****
      9 0
 S   3 1.00       0.000000000000
      0.1873113696D+02  0.3349460434D-01
      0.2825394365D+01  0.2347269535D+00
      0.6401216923D+00  0.8137573261D+00
 S   1 1.00       0.000000000000
      0.1612777588D+00  0.1000000000D+01
 P   1 1.00       0.000000000000
      0.1100000000D+01  0.1000000000D+01
 ****
     10 0
 S   6 1.00       0.000000000000
      0.5484671660D+04  0.1831074430D-02
      0.8252349460D+03  0.1395017220D-01
      0.1880469580D+03  0.6844507810D-01
      0.5296450000D+02  0.2327143360D+00
      0.1689757040D+02  0.4701928980D+00
      0.5799635340D+01  0.3585208530D+00
 SP   3 1.00       0.000000000000
      0.1553961625D+02 -0.1107775495D+00  0.7087426823D-01
      0.3599933586D+01 -0.1480262627D+00  0.3397528391D+00
      0.1013761750D+01  0.1130767015D+01  0.7271585773D+00
 SP   1 1.00       0.000000000000
      0.2700058226D+00  0.1000000000D+01  0.1000000000D+01
 D   1 1.00       0.000000000000
      0.8000000000D+00  0.1000000000D+01
 ****
     11 0
 S   3 1.00       0.000000000000
      0.1873113696D+02  0.3349460434D-01
      0.2825394365D+01  0.2347269535D+00
      0.6401216923D+00  0.8137573261D+00
 S   1 1.00       0.000000000000
      0.1612777588D+00  0.1000000000D+01
 P   1 1.00       0.000000000000
      0.1100000000D+01  0.1000000000D+01
 ****
     12 0
 S   6 1.00       0.000000000000
      0.5484671660D+04  0.1831074430D-02
      0.8252349460D+03  0.1395017220D-01
      0.1880469580D+03  0.6844507810D-01
      0.5296450000D+02  0.2327143360D+00
      0.1689757040D+02  0.4701928980D+00
      0.5799635340D+01  0.3585208530D+00
 SP   3 1.00       0.000000000000
      0.1553961625D+02 -0.1107775495D+00  0.7087426823D-01
      0.3599933586D+01 -0.1480262627D+00  0.3397528391D+00
      0.1013761750D+01  0.1130767015D+01  0.7271585773D+00
 SP   1 1.00       0.000000000000
      0.2700058226D+00  0.1000000000D+01  0.1000000000D+01
 D   1 1.00       0.000000000000
      0.8000000000D+00  0.1000000000D+01
 ****
     13 0
 S   3 1.00       0.000000000000
      0.1873113696D+02  0.3349460434D-01
      0.2825394365D+01  0.2347269535D+00
      0.6401216923D+00  0.8137573261D+00
 S   1 1.00       0.000000000000
      0.1612777588D+00  0.1000000000D+01
 P   1 1.00       0.000000000000
      0.1100000000D+01  0.1000000000D+01
 ****
     14 0
 S   6 1.00       0.000000000000
      0.5484671660D+04  0.1831074430D-02
      0.8252349460D+03  0.1395017220D-01
      0.1880469580D+03  0.6844507810D-01
      0.5296450000D+02  0.2327143360D+00
      0.1689757040D+02  0.4701928980D+00
      0.5799635340D+01  0.3585208530D+00
 SP   3 1.00       0.000000000000
      0.1553961625D+02 -0.1107775495D+00  0.7087426823D-01
      0.3599933586D+01 -0.1480262627D+00  0.3397528391D+00
      0.1013761750D+01  0.1130767015D+01  0.7271585773D+00
 SP   1 1.00       0.000000000000
      0.2700058226D+00  0.1000000000D+01  0.1000000000D+01
 D   1 1.00       0.000000000000
      0.8000000000D+00  0.1000000000D+01
 ****
     15 0
 S   6 1.00       0.000000000000
      0.5484671660D+04  0.1831074430D-02
      0.8252349460D+03  0.1395017220D-01
      0.1880469580D+03  0.6844507810D-01
      0.5296450000D+02  0.2327143360D+00
      0.1689757040D+02  0.4701928980D+00
      0.5799635340D+01  0.3585208530D+00
 SP   3 1.00       0.000000000000
      0.1553961625D+02 -0.1107775495D+00  0.7087426823D-01
      0.3599933586D+01 -0.1480262627D+00  0.3397528391D+00
      0.1013761750D+01  0.1130767015D+01  0.7271585773D+00
 SP   1 1.00       0.000000000000
      0.2700058226D+00  0.1000000000D+01  0.1000000000D+01
 D   1 1.00       0.000000000000
      0.8000000000D+00  0.1000000000D+01
 ****
     16 0
 S   6 1.00       0.000000000000
      0.3047524880D+04  0.1834737132D-02
      0.4573695180D+03  0.1403732281D-01
      0.1039486850D+03  0.6884262226D-01
      0.2921015530D+02  0.2321844432D+00
      0.9286662960D+01  0.4679413484D+00
      0.3163926960D+01  0.3623119853D+00
 SP   3 1.00       0.000000000000
      0.7868272350D+01 -0.1193324198D+00  0.6899906659D-01
      0.1881288540D+01 -0.1608541517D+00  0.3164239610D+00
      0.5442492580D+00  0.1143456438D+01  0.7443082909D+00
 SP   1 1.00       0.000000000000
      0.1687144782D+00  0.1000000000D+01  0.1000000000D+01
 D   1 1.00       0.000000000000
      0.8000000000D+00  0.1000000000D+01
 ****
     17 0
 S   6 1.00       0.000000000000
      0.3047524880D+04  0.1834737132D-02
      0.4573695180D+03  0.1403732281D-01
      0.1039486850D+03  0.6884262226D-01
      0.2921015530D+02  0.2321844432D+00
      0.9286662960D+01  0.4679413484D+00
      0.3163926960D+01  0.3623119853D+00
 SP   3 1.00       0.000000000000
      0.7868272350D+01 -0.1193324198D+00  0.6899906659D-01
      0.1881288540D+01 -0.1608541517D+00  0.3164239610D+00
      0.5442492580D+00  0.1143456438D+01  0.7443082909D+00
 SP   1 1.00       0.000000000000
      0.1687144782D+00  0.1000000000D+01  0.1000000000D+01
 D   1 1.00       0.000000000000
      0.8000000000D+00  0.1000000000D+01
 ****
     18 0
 S   3 1.00       0.000000000000
      0.1873113696D+02  0.3349460434D-01
      0.2825394365D+01  0.2347269535D+00
      0.6401216923D+00  0.8137573261D+00
 S   1 1.00       0.000000000000
      0.1612777588D+00  0.1000000000D+01
 P   1 1.00       0.000000000000
      0.1100000000D+01  0.1000000000D+01
 ****
     19 0
 S   3 1.00       0.000000000000
      0.1873113696D+02  0.3349460434D-01
      0.2825394365D+01  0.2347269535D+00
      0.6401216923D+00  0.8137573261D+00
 S   1 1.00       0.000000000000
      0.1612777588D+00  0.1000000000D+01
 P   1 1.00       0.000000000000
      0.1100000000D+01  0.1000000000D+01
 ****
     20 0
 S   6 1.00       0.000000000000
      0.3047524880D+04  0.1834737132D-02
      0.4573695180D+03  0.1403732281D-01
      0.1039486850D+03  0.6884262226D-01
      0.2921015530D+02  0.2321844432D+00
      0.9286662960D+01  0.4679413484D+00
      0.3163926960D+01  0.3623119853D+00
 SP   3 1.00       0.000000000000
      0.7868272350D+01 -0.1193324198D+00  0.6899906659D-01
      0.1881288540D+01 -0.1608541517D+00  0.3164239610D+00
      0.5442492580D+00  0.1143456438D+01  0.7443082909D+00
 SP   1 1.00       0.000000000000
      0.1687144782D+00  0.1000000000D+01  0.1000000000D+01
 D   1 1.00       0.000000000000
      0.8000000000D+00  0.1000000000D+01
 ****
     21 0
 S   3 1.00       0.000000000000
      0.1873113696D+02  0.3349460434D-01
      0.2825394365D+01  0.2347269535D+00
      0.6401216923D+00  0.8137573261D+00
 S   1 1.00       0.000000000000
      0.1612777588D+00  0.1000000000D+01
 P   1 1.00       0.000000000000
      0.1100000000D+01  0.1000000000D+01
 ****
     22 0
 S   3 1.00       0.000000000000
      0.1873113696D+02  0.3349460434D-01
      0.2825394365D+01  0.2347269535D+00
      0.6401216923D+00  0.8137573261D+00
 S   1 1.00       0.000000000000
      0.1612777588D+00  0.1000000000D+01
 P   1 1.00       0.000000000000
      0.1100000000D+01  0.1000000000D+01
 ****
     23 0
 S   3 1.00       0.000000000000
      0.1873113696D+02  0.3349460434D-01
      0.2825394365D+01  0.2347269535D+00
      0.6401216923D+00  0.8137573261D+00
 S   1 1.00       0.000000000000
      0.1612777588D+00  0.1000000000D+01
 P   1 1.00       0.000000000000
      0.1100000000D+01  0.1000000000D+01
 ****
     24 0
 S   3 1.00       0.000000000000
      0.1873113696D+02  0.3349460434D-01
      0.2825394365D+01  0.2347269535D+00
      0.6401216923D+00  0.8137573261D+00
 S   1 1.00       0.000000000000
      0.1612777588D+00  0.1000000000D+01
 P   1 1.00       0.000000000000
      0.1100000000D+01  0.1000000000D+01
 ****
     25 0
 S   6 1.00       0.000000000000
      0.4173511460D+04  0.1834772160D-02
      0.6274579110D+03  0.1399462700D-01
      0.1429020930D+03  0.6858655181D-01
      0.4023432930D+02  0.2322408730D+00
      0.1282021290D+02  0.4690699481D+00
      0.4390437010D+01  0.3604551991D+00
 SP   3 1.00       0.000000000000
      0.1162636186D+02 -0.1149611817D+00  0.6757974388D-01
      0.2716279807D+01 -0.1691174786D+00  0.3239072959D+00
      0.7722183966D+00  0.1145851947D+01  0.7408951398D+00
 SP   1 1.00       0.000000000000
      0.2120314975D+00  0.1000000000D+01  0.1000000000D+01
 D   1 1.00       0.000000000000
      0.8000000000D+00  0.1000000000D+01
 ****
     26 0
 S   3 1.00       0.000000000000
      0.1873113696D+02  0.3349460434D-01
      0.2825394365D+01  0.2347269535D+00
      0.6401216923D+00  0.8137573261D+00
 S   1 1.00       0.000000000000
      0.1612777588D+00  0.1000000000D+01
 P   1 1.00       0.000000000000
      0.1100000000D+01  0.1000000000D+01
 ****
     27 0
 S   3 1.00       0.000000000000
      0.1873113696D+02  0.3349460434D-01
      0.2825394365D+01  0.2347269535D+00
      0.6401216923D+00  0.8137573261D+00
 S   1 1.00       0.000000000000
      0.1612777588D+00  0.1000000000D+01
 P   1 1.00       0.000000000000
      0.1100000000D+01  0.1000000000D+01
 ****

   283 basis functions,   531 primitive gaussians,   283 cartesian basis functions
    66 alpha electrons       65 beta electrons
       nuclear repulsion energy      1377.7297369403 Hartrees.
 NAtoms=   27 NActive=   27 NUniq=   27 SFac= 1.00D+00 NAtFMM=   60 NAOKFM=F Big=F
 ------------------------------------------------------------------------------
 Polarizable Continuum Model (PCM)
 =================================
 Model                : PCM.
 Atomic radii         : UFF (Universal Force Field).
 Polarization charges : Total charges.
 Charge compensation  : None.
 Solution method      : On-the-fly selection.
 Cavity type          : Scaled VdW (van der Waals Surface) (Alpha=1.100).
 Cavity algorithm     : GePol (No added spheres)
                        Default sphere list used, NSphG=   27.
                        Lebedev-Laikov grids with approx.  5.0 points / Ang**2.
                        Smoothing algorithm: York/Karplus (Gamma=1.0000).
                        Polarization charges: spherical gaussians, with
                                              point-specific exponents (IZeta= 3).
                        Self-potential: point-specific (ISelfS= 7).
                        Self-field    : sphere-specific E.n sum rule (ISelfD= 2).
 Solvent              : Water, Eps=  78.355300 Eps(inf)=   1.777849
 ------------------------------------------------------------------------------
 ExpMin= 9.98D-02 ExpMax= 1.94D+04 ExpMxC= 2.91D+03 IAcc=3 IRadAn=         5 AccDes= 0.00D+00
 Harris functional with IExCor=  402 and IRadAn=       5 diagonalized for initial guess.
 HarFok:  IExCor=  402 AccDes= 0.00D+00 IRadAn=         5 IDoV= 1 UseB2=F ITyADJ=14
 ICtDFT=  3500011 ScaDFX=  1.000000  1.000000  1.000000  1.000000
 FoFCou: FMM=F IPFlag=           0 FMFlag=      100000 FMFlg1=           0
         NFxFlg=           0 DoJE=T BraDBF=F KetDBF=T FulRan=T
         wScrn=  0.000000 ICntrl=       500 IOpCl=  0 I1Cent=   200000004 NGrid=           0
         NMat0=    1 NMatS0=      1 NMatT0=    0 NMatD0=    1 NMtDS0=    0 NMtDT0=    0
 Petite list used in FoFCou.
 Initial guess <Sx>= 0.0000 <Sy>= 0.0000 <Sz>= 0.5000 <S**2>= 0.7500 S= 0.5000
 Inv3:  Mode=1 IEnd=    13687488.
 Iteration    1 A*A^-1 deviation from unit magnitude is 7.77D-15 for    604.
 Iteration    1 A*A^-1 deviation from orthogonality  is 3.85D-15 for    596    256.
 Iteration    1 A^-1*A deviation from unit magnitude is 7.77D-15 for    604.
 Iteration    1 A^-1*A deviation from orthogonality  is 5.60D-12 for   1858   1791.
 Restarting incremental Fock formation.
 Error on total polarization charges =  0.01025
 SCF Done:  E(UB3LYP) =  -1424.43120327     A.U. after   24 cycles
            NFock= 24  Conv=0.76D-08     -V/T= 2.0060
 <Sx>= 0.0000 <Sy>= 0.0000 <Sz>= 0.5000 <S**2>= 0.7511 S= 0.5006
 <L.S>= 0.000000000000E+00
 Annihilation of the first spin contaminant:
 S**2 before annihilation     0.7511,   after     0.7500

 **********************************************************************

            Population analysis using the SCF density.

 **********************************************************************

 Orbital symmetries:
 Alpha Orbitals:
       Occupied  (A) (A) (A) (A) (A) (A) (A) (A) (A) (A) (A) (A)
                 (A) (A) (A) (A) (A) (A) (A) (A) (A) (A) (A) (A)
                 (A) (A) (A) (A) (A) (A) (A) (A) (A) (A) (A) (A)
                 (A) (A) (A) (A) (A) (A) (A) (A) (A) (A) (A) (A)
                 (A) (A) (A) (A) (A) (A) (A) (A) (A) (A) (A) (A)
                 (A) (A) (A) (A) (A) (A)
       Virtual   (A) (A) (A) (A) (A) (A) (A) (A) (A) (A) (A) (A)
                 (A) (A) (A) (A) (A) (A) (A) (A) (A) (A) (A) (A)
                 (A) (A) (A) (A) (A) (A) (A) (A) (A) (A) (A) (A)
                 (A) (A) (A) (A) (A) (A) (A) (A) (A) (A) (A) (A)
                 (A) (A) (A) (A) (A) (A) (A) (A) (A) (A) (A) (A)
                 (A) (A) (A) (A) (A) (A) (A) (A) (A) (A) (A) (A)
                 (A) (A) (A) (A) (A) (A) (A) (A) (A) (A) (A) (A)
                 (A) (A) (A) (A) (A) (A) (A) (A) (A) (A) (A) (A)
                 (A) (A) (A) (A) (A) (A) (A) (A) (A) (A) (A) (A)
                 (A) (A) (A) (A) (A) (A) (A) (A) (A) (A) (A) (A)
                 (A) (A) (A) (A) (A) (A) (A) (A) (A) (A) (A) (A)
                 (A) (A) (A) (A) (A) (A) (A) (A) (A) (A) (A) (A)
                 (A) (A) (A) (A) (A) (A) (A) (A) (A) (A) (A) (A)
                 (A) (A) (A) (A) (A) (A) (A) (A) (A) (A) (A) (A)
                 (A) (A) (A) (A) (A) (A) (A) (A) (A) (A) (A) (A)
                 (A) (A) (A) (A) (A) (A) (A) (A) (A) (A) (A) (A)
                 (A) (A) (A) (A) (A) (A) (A) (A) (A) (A) (A) (A)
                 (A) (A) (A) (A) (A) (A) (A) (A) (A) (A) (A) (A)
                 (A)
 Beta  Orbitals:
       Occupied  (A) (A) (A) (A) (A) (A) (A) (A) (A) (A) (A) (A)
                 (A) (A) (A) (A) (A) (A) (A) (A) (A) (A) (A) (A)
                 (A) (A) (A) (A) (A) (A) (A) (A) (A) (A) (A) (A)
                 (A) (A) (A) (A) (A) (A) (A) (A) (A) (A) (A) (A)
                 (A) (A) (A) (A) (A) (A) (A) (A) (A) (A) (A) (A)
                 (A) (A) (A) (A) (A)
       Virtual   (A) (A) (A) (A) (A) (A) (A) (A) (A) (A) (A) (A)
                 (A) (A) (A) (A) (A) (A) (A) (A) (A) (A) (A) (A)
                 (A) (A) (A) (A) (A) (A) (A) (A) (A) (A) (A) (A)
                 (A) (A) (A) (A) (A) (A) (A) (A) (A) (A) (A) (A)
                 (A) (A) (A) (A) (A) (A) (A) (A) (A) (A) (A) (A)
                 (A) (A) (A) (A) (A) (A) (A) (A) (A) (A) (A) (A)
                 (A) (A) (A) (A) (A) (A) (A) (A) (A) (A) (A) (A)
                 (A) (A) (A) (A) (A) (A) (A) (A) (A) (A) (A) (A)
                 (A) (A) (A) (A) (A) (A) (A) (A) (A) (A) (A) (A)
                 (A) (A) (A) (A) (A) (A) (A) (A) (A) (A) (A) (A)
                 (A) (A) (A) (A) (A) (A) (A) (A) (A) (A) (A) (A)
                 (A) (A) (A) (A) (A) (A) (A) (A) (A) (A) (A) (A)
                 (A) (A) (A) (A) (A) (A) (A) (A) (A) (A) (A) (A)
                 (A) (A) (A) (A) (A) (A) (A) (A) (A) (A) (A) (A)
                 (A) (A) (A) (A) (A) (A) (A) (A) (A) (A) (A) (A)
                 (A) (A) (A) (A) (A) (A) (A) (A) (A) (A) (A) (A)
                 (A) (A) (A) (A) (A) (A) (A) (A) (A) (A) (A) (A)
                 (A) (A) (A) (A) (A) (A) (A) (A) (A) (A) (A) (A)
                 (A) (A)
 The electronic state is 2-A.
 Alpha  occ. eigenvalues --  -77.20035 -77.18428 -19.17057 -19.16535 -19.15528
 Alpha  occ. eigenvalues --  -19.14284 -19.13893 -19.10248 -19.09334 -14.30732
 Alpha  occ. eigenvalues --  -10.23688 -10.19911 -10.18222 -10.17268  -6.64971
 Alpha  occ. eigenvalues --   -6.63444  -4.81433  -4.81282  -4.81037  -4.79885
 Alpha  occ. eigenvalues --   -4.79729  -4.79510  -1.06471  -1.04911  -1.01607
 Alpha  occ. eigenvalues --   -1.01511  -0.99655  -0.95174  -0.94311  -0.87249
 Alpha  occ. eigenvalues --   -0.78092  -0.70844  -0.64226  -0.62055  -0.58592
 Alpha  occ. eigenvalues --   -0.56508  -0.54589  -0.52571  -0.50543  -0.47835
 Alpha  occ. eigenvalues --   -0.47031  -0.45049  -0.44212  -0.43790  -0.42744
 Alpha  occ. eigenvalues --   -0.41006  -0.40396  -0.38768  -0.38343  -0.37297
 Alpha  occ. eigenvalues --   -0.36577  -0.35880  -0.35281  -0.34231  -0.34010
 Alpha  occ. eigenvalues --   -0.33484  -0.33174  -0.31355  -0.31056  -0.29881
 Alpha  occ. eigenvalues --   -0.28619  -0.27954  -0.27607  -0.24225  -0.23495
 Alpha  occ. eigenvalues --    0.00840
 Alpha virt. eigenvalues --    0.05516   0.05839   0.07528   0.08830   0.09354
 Alpha virt. eigenvalues --    0.11641   0.12358   0.12882   0.14226   0.14740
 Alpha virt. eigenvalues --    0.15318   0.15965   0.16322   0.17366   0.17870
 Alpha virt. eigenvalues --    0.18672   0.19411   0.21029   0.22099   0.23160
 Alpha virt. eigenvalues --    0.24027   0.25503   0.27722   0.28426   0.30947
 Alpha virt. eigenvalues --    0.35277   0.36220   0.40108   0.40504   0.41627
 Alpha virt. eigenvalues --    0.41944   0.44981   0.45638   0.52002   0.53575
 Alpha virt. eigenvalues --    0.56159   0.56896   0.59105   0.61136   0.61997
 Alpha virt. eigenvalues --    0.62806   0.65245   0.69115   0.70811   0.73278
 Alpha virt. eigenvalues --    0.74160   0.76157   0.77114   0.77720   0.79280
 Alpha virt. eigenvalues --    0.79408   0.79794   0.80665   0.81106   0.83483
 Alpha virt. eigenvalues --    0.85578   0.86230   0.86989   0.88033   0.88862
 Alpha virt. eigenvalues --    0.89922   0.90427   0.91449   0.91911   0.92494
 Alpha virt. eigenvalues --    0.92979   0.93289   0.95183   0.95824   0.97265
 Alpha virt. eigenvalues --    0.97602   0.99045   0.99385   1.01135   1.01318
 Alpha virt. eigenvalues --    1.03860   1.04702   1.06036   1.06851   1.08026
 Alpha virt. eigenvalues --    1.10185   1.11035   1.12190   1.15266   1.16989
 Alpha virt. eigenvalues --    1.18022   1.18849   1.21105   1.22549   1.23503
 Alpha virt. eigenvalues --    1.24800   1.28538   1.29778   1.34173   1.34848
 Alpha virt. eigenvalues --    1.36134   1.41315   1.43706   1.45607   1.48567
 Alpha virt. eigenvalues --    1.48911   1.50690   1.53122   1.56128   1.58717
 Alpha virt. eigenvalues --    1.59161   1.60646   1.62912   1.63680   1.63861
 Alpha virt. eigenvalues --    1.67162   1.68731   1.70308   1.71724   1.72948
 Alpha virt. eigenvalues --    1.73791   1.74536   1.78213   1.79676   1.81949
 Alpha virt. eigenvalues --    1.84287   1.84991   1.85502   1.86649   1.87641
 Alpha virt. eigenvalues --    1.89051   1.89857   1.90189   1.93125   1.93630
 Alpha virt. eigenvalues --    1.96830   1.97754   1.98405   2.00477   2.04748
 Alpha virt. eigenvalues --    2.07323   2.08566   2.09503   2.11028   2.13147
 Alpha virt. eigenvalues --    2.13949   2.16373   2.20384   2.22492   2.22899
 Alpha virt. eigenvalues --    2.24883   2.25345   2.26655   2.28556   2.31360
 Alpha virt. eigenvalues --    2.32393   2.34419   2.35383   2.36558   2.39729
 Alpha virt. eigenvalues --    2.41032   2.42235   2.42815   2.45020   2.48324
 Alpha virt. eigenvalues --    2.51366   2.52098   2.55395   2.57425   2.61082
 Alpha virt. eigenvalues --    2.62304   2.63499   2.63746   2.64433   2.65310
 Alpha virt. eigenvalues --    2.65589   2.67137   2.68926   2.70968   2.71643
 Alpha virt. eigenvalues --    2.72957   2.74320   2.76007   2.77960   2.79393
 Alpha virt. eigenvalues --    2.82684   2.83563   2.84495   2.89232   2.89768
 Alpha virt. eigenvalues --    2.90892   2.96131   2.96571   2.97971   3.03640
 Alpha virt. eigenvalues --    3.24211   3.29752   3.30714   3.36541   3.36757
 Alpha virt. eigenvalues --    3.37122   3.38636   3.40220   3.40697   3.47841
 Alpha virt. eigenvalues --    3.49697   3.52797   3.55801   3.58541   3.59367
 Alpha virt. eigenvalues --    3.87143   3.91580   4.01071   4.03203   4.06680
 Alpha virt. eigenvalues --    4.08682   4.21588   4.32260   4.36120   4.44852
 Alpha virt. eigenvalues --    4.56790   4.74763
  Beta  occ. eigenvalues --  -77.20015 -77.18368 -19.16969 -19.16398 -19.15306
  Beta  occ. eigenvalues --  -19.14174 -19.13460 -19.10222 -19.09265 -14.30732
  Beta  occ. eigenvalues --  -10.23502 -10.19898 -10.18211 -10.17245  -6.64943
  Beta  occ. eigenvalues --   -6.63355  -4.81409  -4.81254  -4.81017  -4.79821
  Beta  occ. eigenvalues --   -4.79662  -4.79437  -1.06228  -1.04326  -1.01347
  Beta  occ. eigenvalues --   -1.01218  -0.98860  -0.95084  -0.94061  -0.87240
  Beta  occ. eigenvalues --   -0.77949  -0.70586  -0.64059  -0.61675  -0.58433
  Beta  occ. eigenvalues --   -0.56324  -0.54353  -0.52194  -0.50173  -0.47778
  Beta  occ. eigenvalues --   -0.46869  -0.44947  -0.44122  -0.43604  -0.42670
  Beta  occ. eigenvalues --   -0.40831  -0.40261  -0.38481  -0.38225  -0.37223
  Beta  occ. eigenvalues --   -0.36317  -0.35737  -0.35163  -0.34121  -0.33751
  Beta  occ. eigenvalues --   -0.33389  -0.32947  -0.31185  -0.30846  -0.29727
  Beta  occ. eigenvalues --   -0.28518  -0.27727  -0.27424  -0.24048  -0.23488
  Beta virt. eigenvalues --    0.05339   0.06484   0.07535   0.08130   0.09013
  Beta virt. eigenvalues --    0.10401   0.12029   0.13116   0.13598   0.14456
  Beta virt. eigenvalues --    0.15166   0.15980   0.16265   0.16743   0.17997
  Beta virt. eigenvalues --    0.18602   0.18991   0.19574   0.21111   0.22461
  Beta virt. eigenvalues --    0.23390   0.24206   0.25644   0.28085   0.28599
  Beta virt. eigenvalues --    0.31064   0.35638   0.36646   0.40330   0.40807
  Beta virt. eigenvalues --    0.41842   0.42250   0.45303   0.45840   0.52125
  Beta virt. eigenvalues --    0.53784   0.56293   0.57156   0.59238   0.61278
  Beta virt. eigenvalues --    0.62116   0.62944   0.65331   0.69258   0.70899
  Beta virt. eigenvalues --    0.73337   0.74270   0.76466   0.77331   0.78194
  Beta virt. eigenvalues --    0.79372   0.79768   0.80099   0.80764   0.81644
  Beta virt. eigenvalues --    0.83693   0.85720   0.86420   0.87109   0.88285
  Beta virt. eigenvalues --    0.89054   0.90079   0.90794   0.91859   0.92084
  Beta virt. eigenvalues --    0.92805   0.93266   0.93461   0.95281   0.96009
  Beta virt. eigenvalues --    0.97415   0.97795   0.99230   0.99601   1.01416
  Beta virt. eigenvalues --    1.01509   1.04064   1.04876   1.06179   1.07084
  Beta virt. eigenvalues --    1.08175   1.10340   1.11242   1.12350   1.15456
  Beta virt. eigenvalues --    1.17207   1.18246   1.19001   1.21285   1.22755
  Beta virt. eigenvalues --    1.23724   1.24993   1.28661   1.30038   1.34298
  Beta virt. eigenvalues --    1.34925   1.36215   1.41469   1.43809   1.45773
  Beta virt. eigenvalues --    1.48685   1.48996   1.50838   1.53246   1.56257
  Beta virt. eigenvalues --    1.58833   1.59301   1.60811   1.63064   1.63840
  Beta virt. eigenvalues --    1.64026   1.67247   1.68838   1.70449   1.71832
  Beta virt. eigenvalues --    1.73080   1.73980   1.74597   1.78328   1.79820
  Beta virt. eigenvalues --    1.82016   1.84362   1.85079   1.85609   1.86729
  Beta virt. eigenvalues --    1.87753   1.89134   1.89933   1.90326   1.93271
  Beta virt. eigenvalues --    1.93766   1.96972   1.97892   1.98502   2.00583
  Beta virt. eigenvalues --    2.04890   2.07415   2.08695   2.09675   2.11200
  Beta virt. eigenvalues --    2.13280   2.14078   2.16524   2.20482   2.22573
  Beta virt. eigenvalues --    2.23035   2.24950   2.25541   2.26710   2.28583
  Beta virt. eigenvalues --    2.31404   2.32670   2.34990   2.35684   2.37272
  Beta virt. eigenvalues --    2.39860   2.41152   2.42491   2.43046   2.45181
  Beta virt. eigenvalues --    2.48552   2.51708   2.52241   2.55473   2.57504
  Beta virt. eigenvalues --    2.61205   2.62564   2.63753   2.64133   2.64892
  Beta virt. eigenvalues --    2.65964   2.66310   2.67547   2.69379   2.71274
  Beta virt. eigenvalues --    2.72190   2.73304   2.74488   2.76304   2.78182
  Beta virt. eigenvalues --    2.79736   2.82795   2.83644   2.84606   2.89296
  Beta virt. eigenvalues --    2.89814   2.90974   2.96157   2.96709   2.98097
  Beta virt. eigenvalues --    3.04006   3.24236   3.29813   3.30723   3.36591
  Beta virt. eigenvalues --    3.37012   3.37936   3.38928   3.40785   3.41407
  Beta virt. eigenvalues --    3.48221   3.49801   3.52931   3.55879   3.58642
  Beta virt. eigenvalues --    3.59509   3.87294   3.91816   4.01096   4.03349
  Beta virt. eigenvalues --    4.06824   4.08890   4.21904   4.32363   4.36277
  Beta virt. eigenvalues --    4.45062   4.56888   4.74824
     Alpha Molecular Orbital Coefficients:
                           1         2         3         4         5
                           O         O         O         O         O
     Eigenvalues --   -77.20035 -77.18428 -19.17057 -19.16535 -19.15528
   1 1   C  1S         -0.00003  -0.00004  -0.00005  -0.00002  -0.00003
   2        2S          0.00001  -0.00003  -0.00024  -0.00015  -0.00018
   3        2PX         0.00000  -0.00002  -0.00004   0.00004  -0.00000
   4        2PY         0.00004  -0.00004   0.00004   0.00001  -0.00004
   5        2PZ         0.00000  -0.00001   0.00000   0.00003   0.00007
   6        3S          0.00059   0.00090   0.00187   0.00090   0.00109
   7        3PX         0.00002  -0.00033   0.00019  -0.00053  -0.00051
   8        3PY         0.00046  -0.00022   0.00027   0.00089  -0.00009
   9        3PZ         0.00005   0.00012   0.00083  -0.00038  -0.00007
  10        4XX        -0.00008  -0.00012  -0.00001  -0.00004   0.00002
  11        4YY        -0.00014  -0.00009  -0.00001   0.00006   0.00002
  12        4ZZ        -0.00006  -0.00008  -0.00010  -0.00001  -0.00004
  13        4XY        -0.00000  -0.00003  -0.00002   0.00001   0.00004
  14        4XZ        -0.00000   0.00002   0.00001  -0.00002  -0.00000
  15        4YZ        -0.00003   0.00002   0.00001   0.00001  -0.00001
  16 2   O  1S          0.00000   0.00000  -0.00002  -0.00006   0.00003
  17        2S          0.00002  -0.00000  -0.00027  -0.00001  -0.00018
  18        2PX         0.00001   0.00001   0.00001   0.00000   0.00004
  19        2PY        -0.00000  -0.00000  -0.00003  -0.00002   0.00005
  20        2PZ        -0.00001  -0.00001  -0.00003  -0.00001  -0.00004
  21        3S         -0.00020  -0.00012   0.00119  -0.00020   0.00058
  22        3PX        -0.00006   0.00002  -0.00015   0.00015  -0.00013
  23        3PY        -0.00009   0.00007   0.00019   0.00011  -0.00025
  24        3PZ        -0.00010  -0.00010   0.00027   0.00000   0.00018
  25        4XX        -0.00001   0.00002  -0.00019  -0.00002  -0.00014
  26        4YY         0.00002  -0.00003  -0.00017   0.00006  -0.00013
  27        4ZZ         0.00000  -0.00001  -0.00016  -0.00001  -0.00014
  28        4XY        -0.00002   0.00002  -0.00002   0.00001   0.00005
  29        4XZ        -0.00001   0.00000  -0.00002   0.00001  -0.00002
  30        4YZ        -0.00001   0.00000   0.00002   0.00001  -0.00003
  31 3   H  1S         -0.00000  -0.00002  -0.00004  -0.00004  -0.00007
  32        2S         -0.00015  -0.00018   0.00009   0.00038   0.00030
  33        3PX        -0.00000   0.00001  -0.00002   0.00003   0.00003
  34        3PY        -0.00002   0.00001   0.00001   0.00002  -0.00000
  35        3PZ        -0.00004  -0.00004   0.00002   0.00002   0.00001
  36 4   P  1S         -0.00010   0.99625  -0.00000   0.00000   0.00001
  37        2S         -0.00001   0.01417   0.00001   0.00001  -0.00000
  38        2PX         0.00001   0.00001   0.00001  -0.00000  -0.00002
  39        2PY         0.00001  -0.00001  -0.00002  -0.00000   0.00006
  40        2PZ         0.00000  -0.00002   0.00002  -0.00000   0.00003
  41        3S          0.00006  -0.02725  -0.00003   0.00004   0.00030
  42        3PX        -0.00010  -0.00013  -0.00003   0.00002   0.00011
  43        3PY        -0.00005  -0.00005   0.00012   0.00001  -0.00008
  44        3PZ         0.00000   0.00005  -0.00019   0.00000  -0.00015
  45        4S          0.00019   0.00299  -0.00048  -0.00018  -0.00321
  46        4PX         0.00007   0.00015   0.00017  -0.00003  -0.00050
  47        4PY        -0.00005   0.00019  -0.00048  -0.00014   0.00136
  48        4PZ        -0.00011   0.00001   0.00034  -0.00009   0.00208
  49        5XX        -0.00005   0.00943  -0.00003   0.00002  -0.00002
  50        5YY        -0.00008   0.00945   0.00014  -0.00000   0.00026
  51        5ZZ        -0.00002   0.00948   0.00000  -0.00001  -0.00009
  52        5XY        -0.00005  -0.00004  -0.00001  -0.00002  -0.00005
  53        5XZ         0.00001   0.00002  -0.00003   0.00003  -0.00006
  54        5YZ         0.00001   0.00002  -0.00005   0.00002   0.00010
  55 5   P  1S          0.99625   0.00011   0.00001   0.00001   0.00000
  56        2S          0.01417   0.00000  -0.00003   0.00002   0.00003
  57        2PX        -0.00001  -0.00000   0.00006  -0.00004  -0.00000
  58        2PY         0.00000  -0.00001  -0.00000  -0.00002   0.00000
  59        2PZ        -0.00003  -0.00001   0.00003   0.00005  -0.00000
  60        3S         -0.02726   0.00012   0.00020   0.00044   0.00016
  61        3PX        -0.00003   0.00004  -0.00012   0.00010   0.00001
  62        3PY         0.00013   0.00009  -0.00009  -0.00007  -0.00005
  63        3PZ         0.00007   0.00005  -0.00013  -0.00015   0.00001
  64        4S          0.00311  -0.00023  -0.00288  -0.00392  -0.00079
  65        4PX         0.00016   0.00007   0.00154  -0.00034   0.00044
  66        4PY        -0.00023   0.00010   0.00079  -0.00005   0.00036
  67        4PZ         0.00002  -0.00010   0.00121   0.00236  -0.00003
  68        5XX         0.00947  -0.00003   0.00021   0.00004   0.00001
  69        5YY         0.00941  -0.00010  -0.00004   0.00006   0.00000
  70        5ZZ         0.00950  -0.00004  -0.00007   0.00003  -0.00000
  71        5XY         0.00001  -0.00003  -0.00007   0.00008  -0.00001
  72        5XZ         0.00000  -0.00001   0.00012  -0.00021  -0.00002
  73        5YZ        -0.00003  -0.00000  -0.00003  -0.00013  -0.00001
  74 6   O  1S          0.00002  -0.00001  -0.00007  -0.00001  -0.00001
  75        2S          0.00006  -0.00004  -0.00012   0.00002  -0.00023
  76        2PX         0.00002  -0.00004  -0.00001   0.00002  -0.00003
  77        2PY         0.00001   0.00005   0.00003  -0.00001  -0.00001
  78        2PZ         0.00001  -0.00007  -0.00001  -0.00001   0.00002
  79        3S         -0.00026   0.00072   0.00056  -0.00007   0.00144
  80        3PX        -0.00014   0.00009   0.00004  -0.00009   0.00046
  81        3PY        -0.00006  -0.00025  -0.00008   0.00003  -0.00008
  82        3PZ        -0.00008   0.00023   0.00006   0.00004   0.00009
  83        4XX         0.00006  -0.00011  -0.00000   0.00001  -0.00010
  84        4YY         0.00006   0.00000   0.00001   0.00004  -0.00023
  85        4ZZ         0.00005  -0.00016  -0.00003   0.00002  -0.00012
  86        4XY         0.00001   0.00008   0.00005   0.00001   0.00000
  87        4XZ        -0.00001  -0.00013  -0.00001   0.00001  -0.00001
  88        4YZ         0.00001   0.00006   0.00002   0.00001   0.00001
  89 7   H  1S         -0.00004  -0.00010  -0.00011  -0.00001   0.00002
  90        2S         -0.00005  -0.00021   0.00002  -0.00003   0.00037
  91        3PX        -0.00001  -0.00001  -0.00004  -0.00000   0.00003
  92        3PY        -0.00002  -0.00001  -0.00003  -0.00001  -0.00001
  93        3PZ        -0.00000  -0.00000  -0.00002  -0.00001   0.00003
  94 8   O  1S          0.00000  -0.00001   0.00002   0.00001   0.99267
  95        2S          0.00001  -0.00006   0.00000  -0.00001   0.02573
  96        2PX        -0.00000   0.00002  -0.00001  -0.00000   0.00008
  97        2PY        -0.00000  -0.00007  -0.00000  -0.00001   0.00010
  98        2PZ        -0.00000  -0.00005   0.00001  -0.00000   0.00085
  99        3S         -0.00009   0.00081  -0.00000   0.00002   0.01302
 100        3PX         0.00001  -0.00007   0.00002   0.00002  -0.00008
 101        3PY        -0.00001   0.00023  -0.00000   0.00004   0.00072
 102        3PZ         0.00002   0.00027  -0.00007   0.00000  -0.00035
 103        4XX         0.00001  -0.00004  -0.00000  -0.00001  -0.00828
 104        4YY         0.00001  -0.00025  -0.00001  -0.00001  -0.00832
 105        4ZZ         0.00001   0.00002  -0.00001  -0.00002  -0.00832
 106        4XY         0.00000   0.00003   0.00001   0.00000   0.00002
 107        4XZ        -0.00000   0.00002  -0.00000  -0.00000  -0.00001
 108        4YZ         0.00001  -0.00009  -0.00001   0.00000  -0.00001
 109 9   H  1S         -0.00000  -0.00012   0.00003   0.00001   0.00045
 110        2S         -0.00001  -0.00022  -0.00013   0.00000  -0.00089
 111        3PX        -0.00000   0.00001  -0.00000  -0.00000   0.00001
 112        3PY        -0.00000  -0.00001  -0.00001   0.00000  -0.00006
 113        3PZ        -0.00000   0.00001  -0.00000  -0.00001   0.00000
 114 10  O  1S         -0.00001   0.00000   0.99267  -0.00034  -0.00004
 115        2S         -0.00004   0.00003   0.02575  -0.00025  -0.00010
 116        2PX        -0.00008  -0.00001   0.00044  -0.00001  -0.00001
 117        2PY        -0.00001  -0.00001   0.00078   0.00003   0.00000
 118        2PZ        -0.00004  -0.00001   0.00025   0.00004  -0.00001
 119        3S          0.00073  -0.00009   0.01286   0.00150   0.00053
 120        3PX         0.00029   0.00003   0.00044   0.00041   0.00009
 121        3PY         0.00015   0.00006  -0.00071  -0.00035  -0.00007
 122        3PZ         0.00016   0.00003   0.00005  -0.00016   0.00006
 123        4XX        -0.00023   0.00002  -0.00831  -0.00017  -0.00007
 124        4YY         0.00003  -0.00002  -0.00834  -0.00021  -0.00006
 125        4ZZ        -0.00005   0.00002  -0.00828  -0.00014  -0.00006
 126        4XY         0.00007  -0.00000   0.00001  -0.00005  -0.00001
 127        4XZ        -0.00009   0.00001  -0.00003   0.00002   0.00001
 128        4YZ         0.00003  -0.00000  -0.00001   0.00002   0.00000
 129 11  H  1S         -0.00011   0.00001   0.00049   0.00007  -0.00002
 130        2S         -0.00019   0.00000  -0.00085   0.00034   0.00004
 131        3PX        -0.00000  -0.00000  -0.00004   0.00006  -0.00000
 132        3PY         0.00001  -0.00001   0.00001  -0.00004  -0.00000
 133        3PZ        -0.00000  -0.00000  -0.00002   0.00001  -0.00000
 134 12  O  1S         -0.00000   0.00000   0.00024   0.99267  -0.00001
 135        2S         -0.00002  -0.00000  -0.00013   0.02570  -0.00000
 136        2PX         0.00003   0.00000  -0.00001   0.00038   0.00000
 137        2PY         0.00002   0.00000   0.00001   0.00002   0.00001
 138        2PZ        -0.00007  -0.00000   0.00004   0.00081   0.00001
 139        3S          0.00062  -0.00001   0.00087   0.01319   0.00002
 140        3PX        -0.00006   0.00000  -0.00021  -0.00062  -0.00002
 141        3PY        -0.00005  -0.00002  -0.00020  -0.00050  -0.00004
 142        3PZ         0.00033   0.00001  -0.00014   0.00006  -0.00003
 143        4XX        -0.00004   0.00000  -0.00021  -0.00831  -0.00000
 144        4YY        -0.00007   0.00000  -0.00006  -0.00829   0.00000
 145        4ZZ        -0.00008   0.00000  -0.00012  -0.00833  -0.00001
 146        4XY        -0.00007   0.00000   0.00001  -0.00001   0.00000
 147        4XZ         0.00014  -0.00000  -0.00002   0.00002   0.00000
 148        4YZ         0.00011  -0.00000   0.00000   0.00001   0.00000
 149 13  H  1S         -0.00011   0.00000   0.00008   0.00042   0.00002
 150        2S         -0.00024  -0.00002  -0.00019  -0.00093  -0.00009
 151        3PX         0.00002   0.00000  -0.00002   0.00007   0.00000
 152        3PY         0.00000   0.00000  -0.00001   0.00005   0.00001
 153        3PZ         0.00001  -0.00000  -0.00005  -0.00001  -0.00000
 154 14  O  1S          0.00002   0.00000  -0.00002  -0.00003  -0.00001
 155        2S         -0.00000   0.00000   0.00004   0.00004  -0.00004
 156        2PX         0.00004  -0.00001   0.00005  -0.00003   0.00002
 157        2PY         0.00001  -0.00002   0.00004  -0.00002   0.00000
 158        2PZ         0.00018  -0.00001  -0.00003   0.00001   0.00000
 159        3S          0.00026   0.00001  -0.00019  -0.00023   0.00023
 160        3PX        -0.00010   0.00002  -0.00033   0.00013  -0.00010
 161        3PY         0.00002   0.00003  -0.00017   0.00007  -0.00004
 162        3PZ        -0.00036   0.00002  -0.00009  -0.00029  -0.00005
 163        4XX         0.00009   0.00002   0.00005   0.00004  -0.00002
 164        4YY         0.00009   0.00001   0.00007   0.00005  -0.00003
 165        4ZZ        -0.00014   0.00001   0.00009   0.00011  -0.00003
 166        4XY        -0.00001  -0.00001   0.00003  -0.00003  -0.00001
 167        4XZ        -0.00005  -0.00001   0.00005   0.00000   0.00001
 168        4YZ        -0.00006  -0.00000   0.00001   0.00001   0.00001
 169 15  O  1S          0.00001   0.00002  -0.00002  -0.00001  -0.00002
 170        2S          0.00005  -0.00003  -0.00013  -0.00003   0.00012
 171        2PX         0.00002  -0.00005   0.00000   0.00000   0.00000
 172        2PY         0.00002   0.00004  -0.00007   0.00001   0.00002
 173        2PZ        -0.00000   0.00018   0.00004   0.00001  -0.00000
 174        3S         -0.00020   0.00039   0.00058   0.00016  -0.00064
 175        3PX        -0.00007   0.00007   0.00002  -0.00000   0.00003
 176        3PY        -0.00006  -0.00012   0.00025  -0.00002  -0.00020
 177        3PZ         0.00005  -0.00037  -0.00024  -0.00006  -0.00013
 178        4XX         0.00004   0.00005  -0.00013  -0.00002   0.00012
 179        4YY         0.00003   0.00007  -0.00011  -0.00002   0.00008
 180        4ZZ         0.00004  -0.00015  -0.00008  -0.00001   0.00014
 181        4XY        -0.00002   0.00001   0.00001  -0.00001   0.00000
 182        4XZ         0.00001   0.00008  -0.00002  -0.00000  -0.00001
 183        4YZ         0.00001  -0.00004  -0.00002  -0.00000   0.00003
 184 16  C  1S         -0.00002  -0.00001   0.00002  -0.00003  -0.00001
 185        2S         -0.00005  -0.00003   0.00011  -0.00015  -0.00007
 186        2PX         0.00002   0.00004  -0.00001   0.00001  -0.00003
 187        2PY        -0.00004  -0.00000   0.00000  -0.00002  -0.00001
 188        2PZ         0.00001  -0.00000   0.00002  -0.00001  -0.00003
 189        3S          0.00033  -0.00004  -0.00083   0.00105   0.00035
 190        3PX         0.00018   0.00002   0.00050  -0.00037  -0.00007
 191        3PY        -0.00003  -0.00014  -0.00037   0.00031  -0.00004
 192        3PZ        -0.00006   0.00014  -0.00010  -0.00001   0.00011
 193        4XX        -0.00003  -0.00005   0.00000  -0.00003   0.00002
 194        4YY        -0.00005  -0.00002   0.00003  -0.00005   0.00002
 195        4ZZ        -0.00004  -0.00003   0.00003  -0.00006  -0.00000
 196        4XY         0.00002   0.00001   0.00003  -0.00001   0.00002
 197        4XZ         0.00000  -0.00001  -0.00000   0.00002  -0.00000
 198        4YZ         0.00001  -0.00001   0.00001  -0.00001   0.00001
 199 17  C  1S          0.00001  -0.00001  -0.00001   0.00001   0.00000
 200        2S          0.00006  -0.00003  -0.00004   0.00001   0.00001
 201        2PX        -0.00001   0.00002  -0.00001   0.00002   0.00001
 202        2PY         0.00000   0.00000  -0.00001   0.00001  -0.00000
 203        2PZ        -0.00001  -0.00000  -0.00000   0.00000   0.00001
 204        3S         -0.00022   0.00018   0.00025  -0.00034  -0.00004
 205        3PX         0.00030  -0.00019   0.00002  -0.00008  -0.00010
 206        3PY         0.00000  -0.00002   0.00018  -0.00004   0.00004
 207        3PZ         0.00006  -0.00001   0.00013  -0.00013  -0.00010
 208        4XX        -0.00002  -0.00000  -0.00001   0.00002  -0.00001
 209        4YY         0.00001  -0.00002  -0.00000   0.00002  -0.00000
 210        4ZZ         0.00001  -0.00002  -0.00001   0.00001  -0.00000
 211        4XY         0.00001   0.00001  -0.00001  -0.00001  -0.00000
 212        4XZ         0.00000  -0.00000   0.00000   0.00001   0.00001
 213        4YZ         0.00000   0.00000   0.00001  -0.00001   0.00000
 214 18  H  1S         -0.00002   0.00000  -0.00000  -0.00001   0.00004
 215        2S         -0.00002  -0.00023  -0.00004   0.00005  -0.00006
 216        3PX        -0.00001   0.00004  -0.00003   0.00000  -0.00001
 217        3PY         0.00001  -0.00001   0.00000   0.00001  -0.00002
 218        3PZ         0.00001  -0.00001  -0.00001   0.00000  -0.00002
 219 19  H  1S          0.00002  -0.00001   0.00008  -0.00003  -0.00004
 220        2S         -0.00019  -0.00022   0.00005  -0.00019  -0.00004
 221        3PX         0.00001   0.00004  -0.00001   0.00001  -0.00001
 222        3PY        -0.00004   0.00001   0.00001  -0.00002  -0.00000
 223        3PZ         0.00001   0.00001   0.00000   0.00000  -0.00001
 224 20  C  1S          0.00000   0.00000   0.00000  -0.00000  -0.00000
 225        2S          0.00001   0.00001   0.00002  -0.00001  -0.00001
 226        2PX         0.00000  -0.00000  -0.00001   0.00000  -0.00001
 227        2PY        -0.00000   0.00000  -0.00001   0.00001  -0.00000
 228        2PZ         0.00000   0.00000   0.00000   0.00000  -0.00000
 229        3S         -0.00011  -0.00006  -0.00003   0.00010   0.00011
 230        3PX         0.00006  -0.00001   0.00016  -0.00013  -0.00000
 231        3PY        -0.00001   0.00004   0.00003  -0.00003   0.00008
 232        3PZ        -0.00004  -0.00001  -0.00005  -0.00002   0.00001
 233        4XX         0.00001  -0.00000   0.00001  -0.00000   0.00000
 234        4YY         0.00000   0.00001   0.00000   0.00000   0.00000
 235        4ZZ         0.00000   0.00000   0.00001  -0.00000  -0.00000
 236        4XY         0.00000  -0.00001   0.00001  -0.00000  -0.00000
 237        4XZ         0.00000   0.00000   0.00000  -0.00000  -0.00000
 238        4YZ         0.00000  -0.00000  -0.00000   0.00000  -0.00000
 239 21  H  1S          0.00004  -0.00001  -0.00001   0.00002  -0.00001
 240        2S         -0.00002  -0.00001   0.00006  -0.00002  -0.00003
 241        3PX        -0.00001   0.00001  -0.00001  -0.00000   0.00000
 242        3PY        -0.00000  -0.00000  -0.00001   0.00002  -0.00000
 243        3PZ        -0.00001   0.00000   0.00000  -0.00001  -0.00000
 244 22  H  1S          0.00001  -0.00001  -0.00000  -0.00001   0.00000
 245        2S         -0.00013   0.00004  -0.00032   0.00038   0.00001
 246        3PX         0.00001   0.00001   0.00001  -0.00003   0.00001
 247        3PY        -0.00000  -0.00001   0.00001   0.00001  -0.00001
 248        3PZ        -0.00001  -0.00000   0.00000  -0.00002   0.00001
 249 23  H  1S          0.00000   0.00000   0.00001  -0.00001  -0.00000
 250        2S          0.00005   0.00003   0.00002   0.00003  -0.00002
 251        3PX        -0.00000   0.00000  -0.00001   0.00000  -0.00000
 252        3PY         0.00000  -0.00000  -0.00000   0.00001  -0.00000
 253        3PZ        -0.00000  -0.00000   0.00000  -0.00000   0.00000
 254 24  H  1S          0.00000  -0.00000   0.00001  -0.00001  -0.00000
 255        2S         -0.00000   0.00005   0.00001  -0.00004   0.00004
 256        3PX        -0.00000  -0.00000  -0.00001   0.00001  -0.00000
 257        3PY        -0.00000   0.00000  -0.00000  -0.00000   0.00000
 258        3PZ         0.00000   0.00000   0.00000  -0.00000   0.00000
 259 25  N  1S          0.00000  -0.00000   0.00001  -0.00000   0.00000
 260        2S          0.00001  -0.00001   0.00002  -0.00002   0.00001
 261        2PX        -0.00000   0.00000  -0.00000  -0.00000   0.00000
 262        2PY         0.00000  -0.00000  -0.00000   0.00000  -0.00000
 263        2PZ         0.00000   0.00000  -0.00000  -0.00000   0.00000
 264        3S         -0.00007   0.00005  -0.00017   0.00012  -0.00005
 265        3PX         0.00004  -0.00004   0.00005  -0.00002   0.00002
 266        3PY        -0.00001   0.00001   0.00002  -0.00001   0.00001
 267        3PZ        -0.00000   0.00001  -0.00002   0.00003  -0.00001
 268        4XX         0.00000  -0.00000   0.00001  -0.00001   0.00000
 269        4YY         0.00001  -0.00001   0.00001  -0.00001   0.00000
 270        4ZZ         0.00001  -0.00001   0.00002  -0.00001   0.00000
 271        4XY        -0.00000   0.00000  -0.00000  -0.00000  -0.00000
 272        4XZ        -0.00000  -0.00000   0.00000  -0.00000   0.00000
 273        4YZ        -0.00000   0.00000   0.00000  -0.00000   0.00000
 274 26  H  1S          0.00000  -0.00001  -0.00000   0.00000   0.00000
 275        2S          0.00001  -0.00001   0.00003  -0.00004  -0.00000
 276        3PX        -0.00000   0.00000  -0.00000   0.00000   0.00000
 277        3PY         0.00000  -0.00000  -0.00000   0.00000   0.00000
 278        3PZ        -0.00000   0.00000  -0.00000   0.00000   0.00000
 279 27  H  1S         -0.00000   0.00001   0.00001  -0.00001   0.00000
 280        2S         -0.00002   0.00001  -0.00001   0.00001   0.00001
 281        3PX         0.00000  -0.00000   0.00000  -0.00000  -0.00000
 282        3PY        -0.00000   0.00000  -0.00000  -0.00000  -0.00000
 283        3PZ         0.00000  -0.00000   0.00000  -0.00000   0.00000
                           6         7         8         9        10
                           O         O         O         O         O
     Eigenvalues --   -19.14284 -19.13893 -19.10248 -19.09334 -14.30732
   1 1   C  1S         -0.00002  -0.00002  -0.00002  -0.00000  -0.00000
   2        2S          0.00011  -0.00016  -0.00013  -0.00005  -0.00001
   3        2PX         0.00006  -0.00003  -0.00002  -0.00001   0.00001
   4        2PY        -0.00004   0.00004   0.00001  -0.00004   0.00000
   5        2PZ        -0.00032  -0.00005  -0.00006  -0.00006  -0.00000
   6        3S         -0.00091   0.00135   0.00068  -0.00000   0.00013
   7        3PX        -0.00037  -0.00021   0.00032  -0.00049   0.00001
   8        3PY         0.00013  -0.00085   0.00026   0.00037  -0.00007
   9        3PZ         0.00106   0.00018   0.00064   0.00067   0.00006
  10        4XX         0.00002   0.00003  -0.00003   0.00004   0.00000
  11        4YY         0.00002  -0.00002   0.00002   0.00000   0.00000
  12        4ZZ         0.00022   0.00000  -0.00001  -0.00001  -0.00000
  13        4XY        -0.00000  -0.00000  -0.00000   0.00004  -0.00000
  14        4XZ        -0.00003  -0.00002   0.00000  -0.00004   0.00000
  15        4YZ         0.00003  -0.00002   0.00003   0.00000  -0.00000
  16 2   O  1S          0.99274  -0.00006   0.00001   0.00001  -0.00000
  17        2S          0.02586  -0.00006   0.00002  -0.00000  -0.00001
  18        2PX        -0.00082  -0.00001   0.00000  -0.00003  -0.00000
  19        2PY         0.00029   0.00002   0.00004  -0.00002   0.00000
  20        2PZ         0.00038   0.00004   0.00002   0.00001  -0.00000
  21        3S          0.01217   0.00035   0.00007   0.00024   0.00005
  22        3PX        -0.00004  -0.00017  -0.00009   0.00013   0.00000
  23        3PY         0.00001  -0.00002  -0.00015   0.00006   0.00000
  24        3PZ         0.00050  -0.00021  -0.00005   0.00009   0.00001
  25        4XX        -0.00803   0.00002   0.00004   0.00001  -0.00001
  26        4YY        -0.00810  -0.00003   0.00002   0.00002  -0.00001
  27        4ZZ        -0.00817  -0.00007   0.00003   0.00004  -0.00000
  28        4XY        -0.00002   0.00002   0.00000  -0.00000  -0.00000
  29        4XZ         0.00004   0.00001  -0.00001   0.00002   0.00000
  30        4YZ        -0.00002   0.00002  -0.00002  -0.00000   0.00000
  31 3   H  1S          0.00031   0.00003   0.00003   0.00005   0.00000
  32        2S         -0.00125  -0.00045  -0.00024  -0.00016   0.00000
  33        3PX        -0.00012   0.00001  -0.00002  -0.00001  -0.00000
  34        3PY         0.00004   0.00006   0.00001   0.00000  -0.00000
  35        3PZ        -0.00012  -0.00006  -0.00001  -0.00001   0.00000
  36 4   P  1S          0.00000   0.00001  -0.00000   0.00002   0.00000
  37        2S          0.00004  -0.00001  -0.00004  -0.00007   0.00000
  38        2PX        -0.00000   0.00003   0.00001  -0.00002   0.00000
  39        2PY        -0.00000  -0.00003   0.00000  -0.00000   0.00000
  40        2PZ         0.00000   0.00005   0.00001   0.00001  -0.00000
  41        3S          0.00027   0.00025  -0.00014   0.00084   0.00001
  42        3PX         0.00007   0.00003  -0.00008   0.00012  -0.00001
  43        3PY         0.00007   0.00016  -0.00005   0.00006  -0.00000
  44        3PZ        -0.00005  -0.00015  -0.00008   0.00011   0.00000
  45        4S         -0.00098  -0.00342   0.00064  -0.00320  -0.00008
  46        4PX        -0.00042   0.00011   0.00010  -0.00002  -0.00003
  47        4PY         0.00011  -0.00157   0.00032  -0.00066  -0.00001
  48        4PZ         0.00041   0.00142  -0.00006  -0.00234   0.00000
  49        5XX         0.00003   0.00006  -0.00005  -0.00024  -0.00001
  50        5YY        -0.00002   0.00004  -0.00005  -0.00028  -0.00000
  51        5ZZ        -0.00004   0.00008  -0.00002  -0.00015  -0.00000
  52        5XY        -0.00001  -0.00005  -0.00000  -0.00000  -0.00000
  53        5XZ        -0.00000   0.00025  -0.00002  -0.00005   0.00000
  54        5YZ        -0.00002  -0.00009  -0.00002   0.00002  -0.00000
  55 5   P  1S          0.00000  -0.00000   0.00002  -0.00000   0.00000
  56        2S          0.00004  -0.00007  -0.00007  -0.00003   0.00000
  57        2PX        -0.00002   0.00000  -0.00001  -0.00000  -0.00000
  58        2PY         0.00000  -0.00000   0.00002  -0.00000   0.00000
  59        2PZ         0.00000   0.00000   0.00001  -0.00000   0.00000
  60        3S          0.00022  -0.00023   0.00093  -0.00010   0.00000
  61        3PX         0.00014   0.00002   0.00008   0.00004   0.00001
  62        3PY        -0.00007   0.00007  -0.00010   0.00003  -0.00000
  63        3PZ        -0.00005   0.00003   0.00011   0.00001  -0.00001
  64        4S         -0.00072   0.00164  -0.00351  -0.00012  -0.00002
  65        4PX        -0.00003  -0.00048  -0.00089  -0.00015  -0.00004
  66        4PY         0.00027  -0.00067   0.00036   0.00008   0.00001
  67        4PZ         0.00026  -0.00018  -0.00234  -0.00019  -0.00002
  68        5XX         0.00001  -0.00005  -0.00026  -0.00001   0.00000
  69        5YY         0.00001  -0.00006  -0.00028  -0.00002   0.00000
  70        5ZZ        -0.00002  -0.00003  -0.00018  -0.00003   0.00000
  71        5XY        -0.00002   0.00003  -0.00002   0.00002  -0.00000
  72        5XZ        -0.00004   0.00002   0.00003  -0.00004  -0.00000
  73        5YZ         0.00001   0.00001   0.00002  -0.00003   0.00000
  74 6   O  1S          0.00003   0.99266   0.00004   0.00003  -0.00000
  75        2S         -0.00010   0.02579   0.00007  -0.00002  -0.00000
  76        2PX        -0.00001  -0.00017   0.00000   0.00003  -0.00000
  77        2PY        -0.00001  -0.00067   0.00001  -0.00003   0.00000
  78        2PZ         0.00003   0.00027   0.00002  -0.00004  -0.00000
  79        3S          0.00051   0.01293  -0.00036   0.00003   0.00002
  80        3PX         0.00021   0.00060  -0.00006  -0.00009   0.00001
  81        3PY         0.00006   0.00016  -0.00006   0.00015   0.00000
  82        3PZ        -0.00009   0.00033  -0.00012   0.00035   0.00000
  83        4XX        -0.00006  -0.00834   0.00006  -0.00000  -0.00000
  84        4YY        -0.00006  -0.00834   0.00006  -0.00000  -0.00000
  85        4ZZ        -0.00008  -0.00832   0.00005   0.00004  -0.00000
  86        4XY        -0.00000  -0.00004   0.00001   0.00002  -0.00000
  87        4XZ        -0.00001  -0.00005  -0.00001   0.00003   0.00000
  88        4YZ        -0.00001   0.00001  -0.00000  -0.00001  -0.00000
  89 7   H  1S          0.00000   0.00046  -0.00002   0.00001   0.00000
  90        2S          0.00008  -0.00093  -0.00002  -0.00005  -0.00000
  91        3PX         0.00001  -0.00002  -0.00001   0.00001   0.00000
  92        3PY         0.00001   0.00004  -0.00001   0.00000   0.00000
  93        3PZ         0.00002  -0.00003   0.00001  -0.00001  -0.00000
  94 8   O  1S         -0.00011  -0.00007  -0.00000   0.00007  -0.00000
  95        2S         -0.00017  -0.00006  -0.00000   0.00002  -0.00000
  96        2PX        -0.00001  -0.00002   0.00000   0.00000   0.00000
  97        2PY        -0.00003   0.00002   0.00000  -0.00000  -0.00000
  98        2PZ         0.00001   0.00002  -0.00000  -0.00005  -0.00000
  99        3S          0.00077   0.00051   0.00000  -0.00007   0.00002
 100        3PX         0.00005   0.00005  -0.00002  -0.00002  -0.00000
 101        3PY         0.00025   0.00010  -0.00001   0.00014   0.00001
 102        3PZ        -0.00007  -0.00015   0.00001   0.00036  -0.00000
 103        4XX        -0.00012  -0.00008  -0.00001   0.00005  -0.00000
 104        4YY        -0.00010  -0.00007   0.00000   0.00008  -0.00000
 105        4ZZ        -0.00013  -0.00008  -0.00001   0.00004  -0.00000
 106        4XY         0.00002   0.00006   0.00000  -0.00001  -0.00000
 107        4XZ        -0.00000  -0.00004  -0.00000   0.00001   0.00000
 108        4YZ        -0.00001   0.00003   0.00001   0.00002   0.00000
 109 9   H  1S          0.00000   0.00007   0.00000  -0.00009   0.00000
 110        2S          0.00008  -0.00029   0.00002   0.00030   0.00000
 111        3PX        -0.00001   0.00001  -0.00000   0.00000   0.00000
 112        3PY         0.00001  -0.00001   0.00000   0.00003   0.00000
 113        3PZ        -0.00002  -0.00003  -0.00000   0.00004   0.00000
 114 10  O  1S         -0.00008   0.00008   0.00006  -0.00003   0.00000
 115        2S         -0.00014   0.00008   0.00003  -0.00006   0.00000
 116        2PX        -0.00002  -0.00000   0.00002   0.00002   0.00000
 117        2PY         0.00002   0.00001  -0.00001   0.00003   0.00000
 118        2PZ         0.00002  -0.00002  -0.00007  -0.00003   0.00000
 119        3S          0.00061  -0.00054  -0.00019   0.00023  -0.00002
 120        3PX         0.00017  -0.00012   0.00003  -0.00003  -0.00000
 121        3PY        -0.00020  -0.00003   0.00002  -0.00017  -0.00000
 122        3PZ        -0.00008   0.00000   0.00041   0.00014  -0.00000
 123        4XX        -0.00009   0.00007   0.00007  -0.00006   0.00000
 124        4YY        -0.00013   0.00012   0.00006  -0.00009   0.00000
 125        4ZZ        -0.00011   0.00005   0.00005  -0.00006   0.00000
 126        4XY        -0.00002   0.00001  -0.00001   0.00001  -0.00000
 127        4XZ        -0.00001   0.00000   0.00004   0.00001   0.00000
 128        4YZ         0.00001  -0.00001  -0.00002  -0.00003   0.00000
 129 11  H  1S          0.00004   0.00001  -0.00003   0.00006   0.00000
 130        2S          0.00003  -0.00004   0.00003  -0.00001  -0.00001
 131        3PX        -0.00000  -0.00001   0.00001   0.00001  -0.00000
 132        3PY        -0.00003   0.00003   0.00001  -0.00003  -0.00000
 133        3PZ         0.00001  -0.00001  -0.00000  -0.00001  -0.00000
 134 12  O  1S          0.00006   0.00003   0.00005  -0.00000   0.00000
 135        2S         -0.00003   0.00005  -0.00003  -0.00000   0.00000
 136        2PX        -0.00000  -0.00000  -0.00002  -0.00000  -0.00000
 137        2PY        -0.00001  -0.00001   0.00000   0.00001  -0.00000
 138        2PZ        -0.00001  -0.00001  -0.00005  -0.00001   0.00000
 139        3S          0.00018  -0.00026   0.00017  -0.00001   0.00000
 140        3PX         0.00004   0.00007   0.00011   0.00002   0.00000
 141        3PY        -0.00001   0.00009  -0.00007  -0.00003  -0.00000
 142        3PZ         0.00003   0.00003   0.00042   0.00003   0.00000
 143        4XX         0.00004   0.00003   0.00003  -0.00001  -0.00000
 144        4YY         0.00001   0.00003   0.00003  -0.00000   0.00000
 145        4ZZ         0.00000   0.00004   0.00002  -0.00000   0.00000
 146        4XY         0.00001  -0.00000   0.00000  -0.00000  -0.00000
 147        4XZ         0.00004  -0.00000  -0.00001   0.00000  -0.00000
 148        4YZ         0.00001   0.00000  -0.00003  -0.00000   0.00000
 149 13  H  1S         -0.00006  -0.00002  -0.00009  -0.00001  -0.00000
 150        2S          0.00000   0.00007   0.00021   0.00003   0.00000
 151        3PX         0.00003   0.00000   0.00001  -0.00000  -0.00000
 152        3PY         0.00001  -0.00000  -0.00000   0.00000   0.00000
 153        3PZ         0.00002   0.00001   0.00005   0.00000   0.00000
 154 14  O  1S          0.00000   0.00000   0.99270  -0.00009  -0.00000
 155        2S          0.00001   0.00010   0.02553  -0.00011  -0.00001
 156        2PX        -0.00001  -0.00003  -0.00017   0.00001  -0.00000
 157        2PY         0.00000  -0.00003  -0.00008   0.00002   0.00000
 158        2PZ        -0.00001  -0.00001  -0.00079   0.00000   0.00000
 159        3S         -0.00002  -0.00051   0.01321   0.00048   0.00004
 160        3PX         0.00001   0.00014  -0.00004  -0.00004   0.00000
 161        3PY        -0.00003   0.00014  -0.00024  -0.00009  -0.00000
 162        3PZ        -0.00002   0.00012  -0.00060  -0.00007  -0.00001
 163        4XX         0.00002   0.00007  -0.00825  -0.00008  -0.00001
 164        4YY         0.00001   0.00008  -0.00825  -0.00008  -0.00001
 165        4ZZ         0.00002   0.00007  -0.00820  -0.00007  -0.00001
 166        4XY         0.00000  -0.00000   0.00000   0.00002   0.00000
 167        4XZ         0.00000  -0.00001   0.00000   0.00000  -0.00000
 168        4YZ        -0.00000  -0.00001   0.00002   0.00000   0.00000
 169 15  O  1S          0.00000  -0.00005   0.00005   0.99270  -0.00000
 170        2S          0.00002  -0.00009  -0.00004   0.02557  -0.00001
 171        2PX        -0.00001   0.00002  -0.00002   0.00021  -0.00000
 172        2PY         0.00000  -0.00006  -0.00003  -0.00017   0.00000
 173        2PZ        -0.00000   0.00001  -0.00000  -0.00074   0.00000
 174        3S         -0.00009   0.00053   0.00012   0.01306   0.00003
 175        3PX         0.00006  -0.00007   0.00008   0.00031   0.00001
 176        3PY        -0.00002   0.00029   0.00008  -0.00004  -0.00000
 177        3PZ        -0.00002  -0.00037   0.00001  -0.00055  -0.00000
 178        4XX         0.00002  -0.00006  -0.00005  -0.00823  -0.00000
 179        4YY         0.00003  -0.00003  -0.00003  -0.00824  -0.00000
 180        4ZZ         0.00003   0.00004  -0.00005  -0.00819  -0.00000
 181        4XY        -0.00001   0.00002   0.00003  -0.00001  -0.00000
 182        4XZ        -0.00001  -0.00000  -0.00002  -0.00002  -0.00000
 183        4YZ         0.00001  -0.00002   0.00000   0.00001  -0.00000
 184 16  C  1S          0.00001   0.00002  -0.00001  -0.00002   0.00000
 185        2S          0.00011   0.00009  -0.00004  -0.00005   0.00003
 186        2PX        -0.00000  -0.00000  -0.00001   0.00009  -0.00001
 187        2PY         0.00001   0.00001  -0.00006   0.00003   0.00000
 188        2PZ        -0.00009   0.00003   0.00001  -0.00002  -0.00000
 189        3S          0.00004  -0.00067  -0.00023   0.00006  -0.00033
 190        3PX        -0.00019   0.00040   0.00023  -0.00091   0.00001
 191        3PY        -0.00002  -0.00019   0.00022  -0.00034  -0.00007
 192        3PZ         0.00047   0.00004   0.00007  -0.00019   0.00010
 193        4XX         0.00001  -0.00002  -0.00004  -0.00004   0.00000
 194        4YY         0.00003   0.00003  -0.00003  -0.00003   0.00001
 195        4ZZ        -0.00004   0.00001  -0.00002  -0.00002   0.00000
 196        4XY         0.00001   0.00001  -0.00000  -0.00002   0.00000
 197        4XZ        -0.00003  -0.00002   0.00001   0.00004   0.00000
 198        4YZ         0.00001  -0.00000   0.00002  -0.00000   0.00000
 199 17  C  1S         -0.00002  -0.00000   0.00000  -0.00002   0.00000
 200        2S         -0.00011  -0.00002   0.00003  -0.00009   0.00006
 201        2PX        -0.00005   0.00000   0.00007   0.00000   0.00001
 202        2PY        -0.00002   0.00000  -0.00003  -0.00001   0.00001
 203        2PZ        -0.00002  -0.00000  -0.00002   0.00001   0.00000
 204        3S          0.00076   0.00007  -0.00045   0.00073   0.00000
 205        3PX        -0.00007  -0.00005  -0.00037  -0.00040  -0.00036
 206        3PY         0.00008   0.00004   0.00009  -0.00009  -0.00012
 207        3PZ        -0.00026   0.00003  -0.00001   0.00013  -0.00012
 208        4XX        -0.00000   0.00000  -0.00001   0.00001  -0.00006
 209        4YY        -0.00001  -0.00001  -0.00001  -0.00003   0.00000
 210        4ZZ         0.00001  -0.00000  -0.00002  -0.00002  -0.00000
 211        4XY        -0.00001  -0.00000   0.00003   0.00002   0.00001
 212        4XZ         0.00004  -0.00000  -0.00001  -0.00002  -0.00001
 213        4YZ         0.00000   0.00000   0.00000  -0.00001  -0.00001
 214 18  H  1S          0.00007  -0.00000   0.00003  -0.00005   0.00000
 215        2S          0.00008   0.00001   0.00018  -0.00023   0.00004
 216        3PX        -0.00002  -0.00001  -0.00001   0.00004  -0.00000
 217        3PY         0.00001  -0.00001   0.00001  -0.00001   0.00000
 218        3PZ        -0.00006   0.00000   0.00000  -0.00001  -0.00000
[...]
 198         V                 1.978918          3.368389
 199         V                 1.985017          3.352836
 200         V                 2.005830          3.274457
 201         V                 2.048905          3.528039
 202         V                 2.074152          3.235259
 203         V                 2.086947          3.356067
 204         V                 2.096746          3.434465
 205         V                 2.112004          3.436522
 206         V                 2.132798          3.406434
 207         V                 2.140783          3.335762
 208         V                 2.165242          3.438677
 209         V                 2.204823          3.469448
 210         V                 2.225728          3.459764
 211         V                 2.230347          3.371770
 212         V                 2.249497          3.249608
 213         V                 2.255410          3.482150
 214         V                 2.267103          3.237733
 215         V                 2.285825          3.310013
 216         V                 2.314039          3.378870
 217         V                 2.326704          3.666720
 218         V                 2.349899          3.650056
 219         V                 2.356840          3.690566
 220         V                 2.372718          3.685859
 221         V                 2.398600          3.440775
 222         V                 2.411523          3.558073
 223         V                 2.424908          3.654189
 224         V                 2.430455          3.685657
 225         V                 2.451815          3.733860
 226         V                 2.485518          4.178767
 227         V                 2.517083          4.362796
 228         V                 2.522412          4.039519
 229         V                 2.554729          3.773896
 230         V                 2.575041          3.587641
 231         V                 2.612055          3.845904
 232         V                 2.625636          3.611616
 233         V                 2.637535          4.174621
 234         V                 2.641333          3.987863
 235         V                 2.648924          3.768840
 236         V                 2.659635          4.015533
 237         V                 2.663101          3.648084
 238         V                 2.675471          3.740224
 239         V                 2.693786          3.734460
 240         V                 2.712743          3.980441
 241         V                 2.721899          3.859933
 242         V                 2.733043          3.910066
 243         V                 2.744884          3.951310
 244         V                 2.763035          4.053503
 245         V                 2.781817          3.890435
 246         V                 2.797360          4.003310
 247         V                 2.827953          4.251301
 248         V                 2.836438          4.408978
 249         V                 2.846065          4.738934
 250         V                 2.892960          3.974484
 251         V                 2.898143          4.125679
 252         V                 2.909745          4.043636
 253         V                 2.961569          4.186959
 254         V                 2.967086          4.124079
 255         V                 2.980972          4.117982
 256         V                 3.040059          4.628486
 257         V                 3.242357          5.015773
 258         V                 3.298130          5.079374
 259         V                 3.307227          5.406969
 260         V                 3.365905          5.164335
 261         V                 3.370119          6.246520
 262         V                 3.379357          6.421933
 263         V                 3.389282          5.813582
 264         V                 3.407852          5.700504
 265         V                 3.414072          6.337053
 266         V                 3.482215          5.962426
 267         V                 3.498011          5.465482
 268         V                 3.529314          8.695404
 269         V                 3.558792          6.621637
 270         V                 3.586418          6.802581
 271         V                 3.595088          8.788259
 272         V                 3.872937          9.438164
 273         V                 3.918157          9.791860
 274         V                 4.010959          9.491801
 275         V                 4.033489          9.967825
 276         V                 4.068241         10.372577
 277         V                 4.088899         10.373590
 278         V                 4.219038         10.313318
 279         V                 4.323633         10.274614
 280         V                 4.362768         10.825783
 281         V                 4.450616         10.542112
 282         V                 4.568875         10.304415
 283         V                 4.748244         10.546422
 Total kinetic energy from orbitals= 1.415922927740D+03
                          Isotropic Fermi Contact Couplings
        Atom                 a.u.       MegaHertz       Gauss      10(-4) cm-1
     1  C(13)              0.07587      85.29603      30.43575      28.45169
     2  O(17)              0.19133    -115.98139     -41.38504     -38.68723
     3  H(1)               0.00462      20.66480       7.37371       6.89303
     4  P(31)              0.37427     677.84051     241.87035     226.10326
     5  P(31)              0.10007     181.24087      64.67125      60.45545
     6  O(17)              0.72324    -438.42486    -156.44089    -146.24279
     7  H(1)               0.01332      59.55209      21.24966      19.86444
     8  O(17)              0.41094    -249.11142     -88.88915     -83.09462
     9  H(1)               0.01015      45.36123      16.18602      15.13088
    10  O(17)              0.15581     -94.44939     -33.70189     -31.50493
    11  H(1)               0.00225      10.05011       3.58613       3.35235
    12  O(17)              0.21256    -128.85075     -45.97715     -42.97998
    13  H(1)               0.00399      17.85007       6.36935       5.95414
    14  O(17)              0.02454     -14.87547      -5.30794      -4.96192
    15  O(17)              0.06746     -40.89140     -14.59107     -13.63990
    16  C(13)              0.00696       7.82388       2.79176       2.60977
    17  C(13)              0.02232      25.09423       8.95425       8.37053
    18  H(1)              -0.00015      -0.64855      -0.23142      -0.21633
    19  H(1)               0.00178       7.94688       2.83564       2.65079
    20  C(13)              0.00326       3.66464       1.30764       1.22239
    21  H(1)               0.00007       0.29658       0.10583       0.09893
    22  H(1)               0.00005       0.20350       0.07262       0.06788
    23  H(1)              -0.00011      -0.48910      -0.17452      -0.16315
    24  H(1)              -0.00011      -0.51108      -0.18237      -0.17048
    25  N(14)              0.00057       0.18356       0.06550       0.06123
    26  H(1)               0.00000       0.00545       0.00194       0.00182
    27  H(1)               0.00013       0.55914       0.19952       0.18651
 --------------------------------------------------------
       Center         ----  Spin Dipole Couplings  ----
                      3XX-RR        3YY-RR        3ZZ-RR
 --------------------------------------------------------
     1   Atom        0.014211     -0.057740      0.043529
     2   Atom        0.027906     -0.003983     -0.023924
     3   Atom        0.005330     -0.004968     -0.000362
     4   Atom       -0.055155     -0.035847      0.091002
     5   Atom       -0.009255     -0.029113      0.038368
     6   Atom       -0.110496      0.156750     -0.046254
     7   Atom        0.012586     -0.000126     -0.012460
     8   Atom       -0.023064     -0.026264      0.049328
     9   Atom       -0.005272      0.004027      0.001244
    10   Atom        0.004863      0.002122     -0.006985
    11   Atom       -0.001958      0.006885     -0.004927
    12   Atom       -0.037618     -0.012321      0.049940
    13   Atom        0.005120     -0.000385     -0.004735
    14   Atom       -0.013350      0.000414      0.012936
    15   Atom       -0.024510     -0.028996      0.053505
    16   Atom       -0.000693      0.008392     -0.007699
    17   Atom       -0.000224      0.002715     -0.002490
    18   Atom        0.001263      0.001659     -0.002923
    19   Atom        0.000607     -0.000750      0.000142
    20   Atom        0.001890      0.000771     -0.002661
    21   Atom        0.001662     -0.001761      0.000099
    22   Atom        0.000456      0.001906     -0.002362
    23   Atom        0.000896     -0.000724     -0.000172
    24   Atom        0.000873      0.000102     -0.000975
    25   Atom        0.000783     -0.000223     -0.000560
    26   Atom        0.000983     -0.000398     -0.000585
    27   Atom        0.000806     -0.000339     -0.000467
 --------------------------------------------------------
                        XY            XZ            YZ
 --------------------------------------------------------
     1   Atom       -0.012338     -0.078034      0.007485
     2   Atom       -0.017063     -0.028536      0.008393
     3   Atom       -0.000218      0.004833     -0.002797
     4   Atom       -0.010000     -0.002369     -0.016646
     5   Atom       -0.000303     -0.028200     -0.010949
     6   Atom       -0.045761     -0.013493     -0.077023
     7   Atom        0.023508      0.012549      0.006517
     8   Atom       -0.001611     -0.032875      0.061279
     9   Atom       -0.005623      0.005186     -0.010944
    10   Atom        0.024109     -0.005204     -0.013035
    11   Atom       -0.003028      0.000140      0.001877
    12   Atom       -0.011815     -0.000098     -0.043227
    13   Atom        0.006514      0.002205      0.001095
    14   Atom        0.012794     -0.009698     -0.020348
    15   Atom        0.018592      0.033720      0.046351
    16   Atom       -0.003894      0.002070     -0.007645
    17   Atom       -0.001049     -0.000609      0.000281
    18   Atom        0.000256      0.000705      0.001206
    19   Atom        0.000308      0.002701     -0.001002
    20   Atom       -0.005436      0.003385     -0.003363
    21   Atom       -0.000206     -0.000742      0.000567
    22   Atom       -0.000059      0.000856      0.001627
    23   Atom       -0.000576      0.000391     -0.000304
    24   Atom       -0.000693      0.000158      0.000253
    25   Atom       -0.000331      0.000137     -0.000159
    26   Atom        0.000041      0.000220      0.000006
    27   Atom       -0.000152      0.000020     -0.000013
 --------------------------------------------------------


 ---------------------------------------------------------------------------------
              Anisotropic Spin Dipole Couplings in Principal Axis System
 ---------------------------------------------------------------------------------

       Atom             a.u.   MegaHertz   Gauss  10(-4) cm-1        Axes

              Baa    -0.0610    -8.182    -2.919    -2.729  0.3627  0.9089  0.2057
     1 C(13)  Bbb    -0.0484    -6.497    -2.318    -2.167  0.6790 -0.4090  0.6096
              Bcc     0.1094    14.678     5.238     4.896 -0.6382  0.0814  0.7655
 
              Baa    -0.0366     2.647     0.944     0.883  0.3984 -0.0275  0.9168
     2 O(17)  Bbb    -0.0110     0.794     0.283     0.265  0.3277  0.9378 -0.1143
              Bcc     0.0475    -3.440    -1.228    -1.148  0.8566 -0.3460 -0.3827
 
              Baa    -0.0067    -3.553    -1.268    -1.185 -0.1940  0.8327  0.5187
     3 H(1)   Bbb    -0.0016    -0.868    -0.310    -0.290 -0.4915 -0.5401  0.6832
              Bcc     0.0083     4.422     1.578     1.475  0.8490 -0.1224  0.5140
 
              Baa    -0.0599   -12.955    -4.623    -4.321  0.9064  0.4181  0.0603
     4 P(31)  Bbb    -0.0332    -7.184    -2.564    -2.396 -0.4224  0.8994  0.1125
              Bcc     0.0932    20.139     7.186     6.718 -0.0073 -0.1274  0.9918
 
              Baa    -0.0326    -7.045    -2.514    -2.350  0.3445  0.8975  0.2754
     5 P(31)  Bbb    -0.0201    -4.336    -1.547    -1.446  0.8440 -0.4245  0.3278
              Bcc     0.0526    11.381     4.061     3.796 -0.4111 -0.1195  0.9037
 
              Baa    -0.1287     9.310     3.322     3.106  0.8942  0.2445  0.3749
     6 O(17)  Bbb    -0.0592     4.281     1.528     1.428 -0.4280  0.2218  0.8761
              Bcc     0.1878   -13.591    -4.850    -4.534 -0.1311  0.9439 -0.3030
 
              Baa    -0.0198   -10.581    -3.775    -3.529  0.6166 -0.5489 -0.5644
     7 H(1)   Bbb    -0.0149    -7.936    -2.832    -2.647  0.1673 -0.6092  0.7752
              Bcc     0.0347    18.517     6.607     6.177  0.7693  0.5724  0.2838
 
              Baa    -0.0662     4.789     1.709     1.598 -0.3638  0.7761 -0.5152
     8 O(17)  Bbb    -0.0250     1.812     0.647     0.604  0.8966  0.4417  0.0324
              Bcc     0.0912    -6.602    -2.356    -2.202 -0.2527  0.4501  0.8565
 
              Baa    -0.0085    -4.510    -1.609    -1.504 -0.3074  0.5453  0.7798
     9 H(1)   Bbb    -0.0079    -4.224    -1.507    -1.409  0.8914  0.4519  0.0353
              Bcc     0.0164     8.734     3.117     2.913 -0.3332  0.7059 -0.6250
 
              Baa    -0.0233     1.686     0.602     0.563 -0.5491  0.7296  0.4076
    10 O(17)  Bbb    -0.0086     0.621     0.221     0.207  0.5065 -0.0975  0.8567
              Bcc     0.0319    -2.307    -0.823    -0.770  0.6648  0.6769 -0.3160
 
              Baa    -0.0054    -2.856    -1.019    -0.953 -0.2181 -0.2005  0.9551
    11 H(1)   Bbb    -0.0027    -1.444    -0.515    -0.482  0.9334  0.2429  0.2642
              Bcc     0.0081     4.300     1.534     1.434 -0.2850  0.9491  0.1341
 
              Baa    -0.0469     3.390     1.210     1.131  0.7607  0.5924  0.2653
    12 O(17)  Bbb    -0.0255     1.844     0.658     0.615 -0.6473  0.6617  0.3784
              Bcc     0.0723    -5.234    -1.868    -1.746  0.0486 -0.4596  0.8868
 
              Baa    -0.0053    -2.827    -1.009    -0.943 -0.3719  0.2971  0.8794
    13 H(1)   Bbb    -0.0046    -2.428    -0.866    -0.810 -0.4276  0.7860 -0.4464
              Bcc     0.0098     5.255     1.875     1.753  0.8239  0.5421  0.1653
 
              Baa    -0.0213     1.538     0.549     0.513  0.7999 -0.5874 -0.1227
    14 O(17)  Bbb    -0.0119     0.858     0.306     0.286  0.5095  0.5567  0.6561
              Bcc     0.0331    -2.396    -0.855    -0.799 -0.3171 -0.5874  0.7446
 
              Baa    -0.0505     3.654     1.304     1.219 -0.2169  0.9159 -0.3379
    15 O(17)  Bbb    -0.0370     2.675     0.954     0.892  0.9207  0.0769 -0.3826
              Bcc     0.0875    -6.329    -2.258    -2.111  0.3244  0.3940  0.8599
 
              Baa    -0.0108    -1.446    -0.516    -0.482 -0.0518  0.3609  0.9312
    16 C(13)  Bbb    -0.0021    -0.280    -0.100    -0.093  0.9500  0.3053 -0.0655
              Bcc     0.0129     1.726     0.616     0.576 -0.3079  0.8812 -0.3586
 
              Baa    -0.0026    -0.355    -0.127    -0.118  0.2427 -0.0034  0.9701
    17 C(13)  Bbb    -0.0004    -0.060    -0.021    -0.020  0.9177  0.3251 -0.2284
              Bcc     0.0031     0.414     0.148     0.138 -0.3147  0.9457  0.0820
 
              Baa    -0.0033    -1.764    -0.629    -0.588 -0.1360 -0.2271  0.9643
    18 H(1)   Bbb     0.0011     0.608     0.217     0.203  0.8834 -0.4684  0.0142
              Bcc     0.0022     1.156     0.413     0.386  0.4485  0.8538  0.2643
 
              Baa    -0.0028    -1.486    -0.530    -0.496 -0.5867  0.4276  0.6878
    19 H(1)   Bbb    -0.0004    -0.190    -0.068    -0.063  0.3759  0.8960 -0.2364
              Bcc     0.0031     1.675     0.598     0.559  0.7173 -0.1199  0.6864
 
              Baa    -0.0047    -0.634    -0.226    -0.211 -0.0402  0.4924  0.8694
    20 C(13)  Bbb    -0.0041    -0.545    -0.194    -0.182  0.7314  0.6073 -0.3101
              Bcc     0.0088     1.178     0.420     0.393  0.6807 -0.6235  0.3846
 
              Baa    -0.0019    -1.024    -0.365    -0.342 -0.0007  0.9627 -0.2705
    21 H(1)   Bbb    -0.0001    -0.044    -0.016    -0.015  0.4039  0.2477  0.8806
              Bcc     0.0020     1.068     0.381     0.356  0.9148 -0.1086 -0.3890
 
              Baa    -0.0031    -1.657    -0.591    -0.553 -0.2274 -0.3031  0.9254
    22 H(1)   Bbb     0.0006     0.333     0.119     0.111  0.9671 -0.1818  0.1781
              Bcc     0.0025     1.323     0.472     0.441  0.1142  0.9354  0.3345
 
              Baa    -0.0010    -0.507    -0.181    -0.169  0.2409  0.9390  0.2453
    23 H(1)   Bbb    -0.0003    -0.151    -0.054    -0.050 -0.3739 -0.1435  0.9163
              Bcc     0.0012     0.659     0.235     0.220  0.8956 -0.3124  0.3166
 
              Baa    -0.0011    -0.581    -0.207    -0.194 -0.1831 -0.3048  0.9347
    24 H(1)   Bbb    -0.0002    -0.102    -0.036    -0.034  0.4722  0.8066  0.3555
              Bcc     0.0013     0.683     0.244     0.228  0.8623 -0.5064  0.0037
 
              Baa    -0.0006    -0.024    -0.009    -0.008 -0.0047  0.3649  0.9310
    25 N(14)  Bbb    -0.0003    -0.011    -0.004    -0.004  0.3191  0.8829 -0.3444
              Bcc     0.0009     0.035     0.012     0.012  0.9477 -0.2955  0.1206
 
              Baa    -0.0006    -0.328    -0.117    -0.110 -0.1366 -0.0012  0.9906
    26 H(1)   Bbb    -0.0004    -0.213    -0.076    -0.071 -0.0291  0.9996 -0.0028
              Bcc     0.0010     0.541     0.193     0.181  0.9902  0.0292  0.1365
 
              Baa    -0.0005    -0.250    -0.089    -0.083 -0.0037  0.0973  0.9952
    27 H(1)   Bbb    -0.0004    -0.191    -0.068    -0.064  0.1305  0.9868 -0.0960
              Bcc     0.0008     0.441     0.157     0.147  0.9914 -0.1295  0.0164
 

 ---------------------------------------------------------------------------------


 Test job not archived.
 1\1\GINC-BATAGIN2\SP\UB3LYP\6-31G(d,p)\C4H13N1O7P2(1-,2)\ORISON\22-Jan
 -2021\0\\#t B3LYP/6-31G(d,p) scrf=(solvent=water) # Gfinput IOP(6/7=3)
  Pop=hirshfeld Density Test # Units(Ang,Deg)\\w-alendronate-opt-g09.lo
 g\\-1,2\C,0,0.22759,0.14706,-0.33605\O,0,0.14244,0.20912,-1.7513\H,0,0
 .99734,-0.06391,-2.12067\P,0,1.7528,1.07379,0.23326\P,0,0.29324,-1.632
 55,0.23573\O,0,2.7772,0.69408,-0.95586\H,0,3.4046,1.4049,-1.1633\O,0,1
 .47215,2.63387,-0.10221\H,0,1.28307,3.14832,0.69829\O,0,1.74992,-2.039
 15,-0.32655\H,0,1.91307,-2.99616,-0.32896\O,0,-0.67436,-2.4556,-0.7706
 5\H,0,-1.47247,-2.77113,-0.31948\O,0,0.00415,-1.86375,1.67776\O,0,2.17
 48,0.80631,1.63482\C,0,-1.01172,0.85985,0.24918\C,0,-2.3701,0.26816,-0
 .1534\H,0,-0.96219,1.89644,-0.09998\H,0,-0.91942,0.8791,1.34031\C,0,-3
 .5244,1.19058,0.24862\H,0,-2.40402,0.10102,-1.23385\H,0,-2.52107,-0.70
 431,0.33143\H,0,-3.45073,1.41336,1.32713\H,0,-3.41771,2.14878,-0.27471
 \N,0,-4.81289,0.60203,-0.14436\H,0,-4.99049,-0.21768,0.43474\H,0,-5.55
 9,1.25541,0.08647\\Version=EM64L-G16RevA.03\State=2-A\HF=-1424.4312033
 \S2=0.751139\S2-1=0.\S2A=0.750001\RMSD=7.583e-09\Dipole=-3.1302978,-0.
 3897268,-0.430597\Quadrupole=-1.841783,8.9243327,-7.0825497,-6.2685977
 ,-10.9711468,5.10456\PG=C01 [X(C4H13N1O7P2)]\\@


 THE UNDERLYING PHYSICAL LAWS NECESSARY FOR THE 
 MATHEMATICAL THEORY OF A LARGE PART OF PHYSICS AND THE
 WHOLE OF CHEMISTRY ARE THUS COMPLETELY KNOWN, AND THE
 DIFFICULTY IS ONLY THAT THE EXACT APPLICATION OF THESE
 LAWS LEADS TO EQUATIONS MUCH TOO COMPLICATED 
 TO BE SOLUBLE.

                                        -- P. A. M. DIRAC, 1929
 Job cpu time:       0 days  0 hours 25 minutes  3.9 seconds.
 Elapsed time:       0 days  0 hours  3 minutes  8.4 seconds.
 File lengths (MBytes):  RWF=    155 Int=      0 D2E=      0 Chk=      7 Scr=      1
 Normal termination of Gaussian 16 at Fri Jan 22 02:39:56 2021.
