w-alendronate-opt-g09.log                                               
SP        RB3LYP                                                      6-31G(d,p)          
Number of atoms                            I               27
Info1-9                                    I   N=           9
          38          38           0           0           0         111
           1          18        -502
Full Title                                 C   N=           3
w-alendronate-opt-g09.log           
Route                                      C   N=           8
#P B3LYP/6-31G(d,p) scrf=(solvent=water) # Pop=chelp # Gfinp
ut IOP(6/7=3) Density Test          
Charge                                     I                0
Multiplicity                               I                1
Number of electrons                        I              130
Number of alpha electrons                  I               65
Number of beta electrons                   I               65
Number of basis functions                  I              283
Number of independent functions            I              283
Number of point charges in /Mol/           I                0
Number of translation vectors              I                0
Atomic numbers                             I   N=          27
           6           8           1          15          15           8
           1           8           1           8           1           8
           1           8           8           6           6           1
           1           6           1           1           1           1
           7           1           1
Nuclear charges                            R   N=          27
  6.00000000E+00  8.00000000E+00  1.00000000E+00  1.50000000E+01  1.50000000E+01
  8.00000000E+00  1.00000000E+00  8.00000000E+00  1.00000000E+00  8.00000000E+00
  1.00000000E+00  8.00000000E+00  1.00000000E+00  8.00000000E+00  8.00000000E+00
  6.00000000E+00  6.00000000E+00  1.00000000E+00  1.00000000E+00  6.00000000E+00
  1.00000000E+00  1.00000000E+00  1.00000000E+00  1.00000000E+00  7.00000000E+00
  1.00000000E+00  1.00000000E+00
Current cartesian coordinates              R   N=          81
 -4.30083088E-01 -2.77904903E-01 -6.35041447E-01 -2.69172860E-01 -3.95181239E-01
 -3.30947634E+00 -1.88469994E+00  1.20770008E-01 -4.00748448E+00 -3.31231154E+00
 -2.02917200E+00  4.40798533E-01 -5.54145017E-01  3.08507055E+00  4.45466157E-01
 -5.24814728E+00 -1.31162491E+00 -1.80631260E+00 -6.43376089E+00 -2.65488053E+00
 -2.19831738E+00 -2.78195866E+00 -4.97729571E+00 -1.93147890E-01 -2.42464884E+00
 -5.94946517E+00  1.31957787E+00 -3.30687159E+00  3.85343204E+00 -6.17089048E-01
 -3.61518117E+00  5.66191871E+00 -6.21643288E-01  1.27435333E+00  4.64041041E+00
 -1.45631642E+00  2.78256240E+00  5.23667632E+00 -6.03728685E-01 -7.84427520E-03
  3.52197546E+00  3.17050792E+00 -4.10977617E+00 -1.52370839E+00  3.08936308E+00
  1.91187396E+00 -1.62488181E+00  4.70882973E-01  4.47883966E+00 -5.06748680E-01
 -2.89882970E-01  1.81827665E+00 -3.58375305E+00 -1.88933800E-01  1.73745225E+00
 -1.66125911E+00  2.53281984E+00  6.66015126E+00 -2.24986894E+00  4.69824727E-01
  4.54293904E+00 -1.90899829E-01 -2.33163756E+00  4.76413085E+00  1.33095340E+00
  6.26312947E-01  6.52093531E+00 -2.67086218E+00  2.50791325E+00  6.45853714E+00
 -4.06060459E+00 -5.19125646E-01  9.09504401E+00 -1.13766961E+00 -2.72799846E-01
  9.43065872E+00  4.11357935E-01  8.21540553E-01  1.05049881E+01 -2.37237827E+00
  1.63405636E-01
Number of symbols in /Mol/                 I                0
Force Field                                I                0
Atom Types                                 C   N=          27
                                                            
                                                            
                                                            
                                                            
                                                            
                        
Int Atom Types                             I   N=          27
           0           0           0           0           0           0
           0           0           0           0           0           0
           0           0           0           0           0           0
           0           0           0           0           0           0
           0           0           0
MM charges                                 R   N=          27
  0.00000000E+00  0.00000000E+00  0.00000000E+00  0.00000000E+00  0.00000000E+00
  0.00000000E+00  0.00000000E+00  0.00000000E+00  0.00000000E+00  0.00000000E+00
  0.00000000E+00  0.00000000E+00  0.00000000E+00  0.00000000E+00  0.00000000E+00
  0.00000000E+00  0.00000000E+00  0.00000000E+00  0.00000000E+00  0.00000000E+00
  0.00000000E+00  0.00000000E+00  0.00000000E+00  0.00000000E+00  0.00000000E+00
  0.00000000E+00  0.00000000E+00
Integer atomic weights                     I   N=          27
          12          16           1          31          31          16
           1          16           1          16           1          16
           1          16          16          12          12           1
           1          12           1           1           1           1
          14           1           1
Real atomic weights                        R   N=          27
  1.20000000E+01  1.59949146E+01  1.00782504E+00  3.09737634E+01  3.09737634E+01
  1.59949146E+01  1.00782504E+00  1.59949146E+01  1.00782504E+00  1.59949146E+01
  1.00782504E+00  1.59949146E+01  1.00782504E+00  1.59949146E+01  1.59949146E+01
  1.20000000E+01  1.20000000E+01  1.00782504E+00  1.00782504E+00  1.20000000E+01
  1.00782504E+00  1.00782504E+00  1.00782504E+00  1.00782504E+00  1.40030740E+01
  1.00782504E+00  1.00782504E+00
Atom fragment info                         I   N=          27
           0           0           0           0           0           0
           0           0           0           0           0           0
           0           0           0           0           0           0
           0           0           0           0           0           0
           0           0           0
Atom residue num                           I   N=          27
           0           0           0           0           0           0
           0           0           0           0           0           0
           0           0           0           0           0           0
           0           0           0           0           0           0
           0           0           0
Nuclear spins                              I   N=          27
           0           0           1           1           1           0
           1           0           1           0           1           0
           1           0           0           0           0           1
           1           0           1           1           1           1
           2           1           1
Nuclear ZEff                               R   N=          27
 -3.60000000E+00 -5.60000000E+00 -1.00000000E+00 -1.29400000E+01 -1.29400000E+01
 -5.60000000E+00 -1.00000000E+00 -5.60000000E+00 -1.00000000E+00 -5.60000000E+00
 -1.00000000E+00 -5.60000000E+00 -1.00000000E+00 -5.60000000E+00 -5.60000000E+00
 -3.60000000E+00 -3.60000000E+00 -1.00000000E+00 -1.00000000E+00 -3.60000000E+00
 -1.00000000E+00 -1.00000000E+00 -1.00000000E+00 -1.00000000E+00 -4.55000000E+00
 -1.00000000E+00 -1.00000000E+00
Nuclear ZNuc                               R   N=          27
  6.00000000E+00  8.00000000E+00  1.00000000E+00  1.50000000E+01  1.50000000E+01
  8.00000000E+00  1.00000000E+00  8.00000000E+00  1.00000000E+00  8.00000000E+00
  1.00000000E+00  8.00000000E+00  1.00000000E+00  8.00000000E+00  8.00000000E+00
  6.00000000E+00  6.00000000E+00  1.00000000E+00  1.00000000E+00  6.00000000E+00
  1.00000000E+00  1.00000000E+00  1.00000000E+00  1.00000000E+00  7.00000000E+00
  1.00000000E+00  1.00000000E+00
Nuclear QMom                               R   N=          27
  0.00000000E+00  0.00000000E+00  0.00000000E+00  0.00000000E+00  0.00000000E+00
  0.00000000E+00  0.00000000E+00  0.00000000E+00  0.00000000E+00  0.00000000E+00
  0.00000000E+00  0.00000000E+00  0.00000000E+00  0.00000000E+00  0.00000000E+00
  0.00000000E+00  0.00000000E+00  0.00000000E+00  0.00000000E+00  0.00000000E+00
  0.00000000E+00  0.00000000E+00  0.00000000E+00  0.00000000E+00  2.04400000E+00
  0.00000000E+00  0.00000000E+00
Nuclear GFac                               R   N=          27
  0.00000000E+00  0.00000000E+00  2.79284600E+00  1.13160000E+00  1.13160000E+00
  0.00000000E+00  2.79284600E+00  0.00000000E+00  2.79284600E+00  0.00000000E+00
  2.79284600E+00  0.00000000E+00  2.79284600E+00  0.00000000E+00  0.00000000E+00
  0.00000000E+00  0.00000000E+00  2.79284600E+00  2.79284600E+00  0.00000000E+00
  2.79284600E+00  2.79284600E+00  2.79284600E+00  2.79284600E+00  4.03761000E-01
  2.79284600E+00  2.79284600E+00
MicOpt                                     I   N=          27
          -1          -1          -1          -1          -1          -1
          -1          -1          -1          -1          -1          -1
          -1          -1          -1          -1          -1          -1
          -1          -1          -1          -1          -1          -1
          -1          -1          -1
Number of residues                         I                0
Number of secondary structures             I                0
SymInf integers                            I   N=          26
           1           1           1           1           1           0
           0           0           0           0           0           0
           0           0           0           0           0           0
           0           0           0           0           0           0
           0           0
RotTr to input orientation                 R   N=          12
 -1.00000000E+00  4.18994800E-07  0.00000000E+00 -4.18994800E-07 -1.00000000E+00
  0.00000000E+00  0.00000000E+00  0.00000000E+00  1.00000000E+00 -4.36090644E-07
 -1.59899903E-06 -1.01754484E-06
Number of contracted shells                I               97
Number of primitive shells                 I              231
Pure/Cartesian d shells                    I                1
Pure/Cartesian f shells                    I                0
Highest angular momentum                   I                2
Largest degree of contraction              I                6
Shell types                                I   N=          97
           0          -1          -1           2           0          -1
          -1           2           0           0           1           0
          -1          -1          -1           2           0          -1
          -1          -1           2           0          -1          -1
           2           0           0           1           0          -1
          -1           2           0           0           1           0
          -1          -1           2           0           0           1
           0          -1          -1           2           0           0
           1           0          -1          -1           2           0
          -1          -1           2           0          -1          -1
           2           0          -1          -1           2           0
           0           1           0           0           1           0
          -1          -1           2           0           0           1
           0           0           1           0           0           1
           0           0           1           0          -1          -1
           2           0           0           1           0           0
           1
Number of primitives per shell             I   N=          97
           6           3           1           1           6           3
           1           1           3           1           1           6
           6           3           1           1           6           6
           3           1           1           6           3           1
           1           3           1           1           6           3
           1           1           3           1           1           6
           3           1           1           3           1           1
           6           3           1           1           3           1
           1           6           3           1           1           6
           3           1           1           6           3           1
           1           6           3           1           1           3
           1           1           3           1           1           6
           3           1           1           3           1           1
           3           1           1           3           1           1
           3           1           1           6           3           1
           1           3           1           1           3           1
           1
Shell to atom map                          I   N=          97
           1           1           1           1           2           2
           2           2           3           3           3           4
           4           4           4           4           5           5
           5           5           5           6           6           6
           6           7           7           7           8           8
           8           8           9           9           9          10
          10          10          10          11          11          11
          12          12          12          12          13          13
          13          14          14          14          14          15
          15          15          15          16          16          16
          16          17          17          17          17          18
          18          18          19          19          19          20
          20          20          20          21          21          21
          22          22          22          23          23          23
          24          24          24          25          25          25
          25          26          26          26          27          27
          27
Primitive exponents                        R   N=         231
  3.04752488E+03  4.57369518E+02  1.03948685E+02  2.92101553E+01  9.28666296E+00
  3.16392696E+00  7.86827235E+00  1.88128854E+00  5.44249258E-01  1.68714478E-01
  8.00000000E-01  5.48467166E+03  8.25234946E+02  1.88046958E+02  5.29645000E+01
  1.68975704E+01  5.79963534E+00  1.55396162E+01  3.59993359E+00  1.01376175E+00
  2.70005823E-01  8.00000000E-01  1.87311370E+01  2.82539436E+00  6.40121692E-01
  1.61277759E-01  1.10000000E+00  1.94133000E+04  2.90942000E+03  6.61364000E+02
  1.85759000E+02  5.91943000E+01  2.00310000E+01  3.39478000E+02  8.10101000E+01
  2.58780000E+01  9.45221000E+00  3.66566000E+00  1.46746000E+00  2.15623000E+00
  7.48997000E-01  2.83145000E-01  9.98317000E-02  5.50000000E-01  1.94133000E+04
  2.90942000E+03  6.61364000E+02  1.85759000E+02  5.91943000E+01  2.00310000E+01
  3.39478000E+02  8.10101000E+01  2.58780000E+01  9.45221000E+00  3.66566000E+00
  1.46746000E+00  2.15623000E+00  7.48997000E-01  2.83145000E-01  9.98317000E-02
  5.50000000E-01  5.48467166E+03  8.25234946E+02  1.88046958E+02  5.29645000E+01
  1.68975704E+01  5.79963534E+00  1.55396162E+01  3.59993359E+00  1.01376175E+00
  2.70005823E-01  8.00000000E-01  1.87311370E+01  2.82539436E+00  6.40121692E-01
  1.61277759E-01  1.10000000E+00  5.48467166E+03  8.25234946E+02  1.88046958E+02
  5.29645000E+01  1.68975704E+01  5.79963534E+00  1.55396162E+01  3.59993359E+00
  1.01376175E+00  2.70005823E-01  8.00000000E-01  1.87311370E+01  2.82539436E+00
  6.40121692E-01  1.61277759E-01  1.10000000E+00  5.48467166E+03  8.25234946E+02
  1.88046958E+02  5.29645000E+01  1.68975704E+01  5.79963534E+00  1.55396162E+01
  3.59993359E+00  1.01376175E+00  2.70005823E-01  8.00000000E-01  1.87311370E+01
  2.82539436E+00  6.40121692E-01  1.61277759E-01  1.10000000E+00  5.48467166E+03
  8.25234946E+02  1.88046958E+02  5.29645000E+01  1.68975704E+01  5.79963534E+00
  1.55396162E+01  3.59993359E+00  1.01376175E+00  2.70005823E-01  8.00000000E-01
  1.87311370E+01  2.82539436E+00  6.40121692E-01  1.61277759E-01  1.10000000E+00
  5.48467166E+03  8.25234946E+02  1.88046958E+02  5.29645000E+01  1.68975704E+01
  5.79963534E+00  1.55396162E+01  3.59993359E+00  1.01376175E+00  2.70005823E-01
  8.00000000E-01  5.48467166E+03  8.25234946E+02  1.88046958E+02  5.29645000E+01
  1.68975704E+01  5.79963534E+00  1.55396162E+01  3.59993359E+00  1.01376175E+00
  2.70005823E-01  8.00000000E-01  3.04752488E+03  4.57369518E+02  1.03948685E+02
  2.92101553E+01  9.28666296E+00  3.16392696E+00  7.86827235E+00  1.88128854E+00
  5.44249258E-01  1.68714478E-01  8.00000000E-01  3.04752488E+03  4.57369518E+02
  1.03948685E+02  2.92101553E+01  9.28666296E+00  3.16392696E+00  7.86827235E+00
  1.88128854E+00  5.44249258E-01  1.68714478E-01  8.00000000E-01  1.87311370E+01
  2.82539436E+00  6.40121692E-01  1.61277759E-01  1.10000000E+00  1.87311370E+01
  2.82539436E+00  6.40121692E-01  1.61277759E-01  1.10000000E+00  3.04752488E+03
  4.57369518E+02  1.03948685E+02  2.92101553E+01  9.28666296E+00  3.16392696E+00
  7.86827235E+00  1.88128854E+00  5.44249258E-01  1.68714478E-01  8.00000000E-01
  1.87311370E+01  2.82539436E+00  6.40121692E-01  1.61277759E-01  1.10000000E+00
  1.87311370E+01  2.82539436E+00  6.40121692E-01  1.61277759E-01  1.10000000E+00
  1.87311370E+01  2.82539436E+00  6.40121692E-01  1.61277759E-01  1.10000000E+00
  1.87311370E+01  2.82539436E+00  6.40121692E-01  1.61277759E-01  1.10000000E+00
  4.17351146E+03  6.27457911E+02  1.42902093E+02  4.02343293E+01  1.28202129E+01
  4.39043701E+00  1.16263619E+01  2.71627981E+00  7.72218397E-01  2.12031498E-01
  8.00000000E-01  1.87311370E+01  2.82539436E+00  6.40121692E-01  1.61277759E-01
  1.10000000E+00  1.87311370E+01  2.82539436E+00  6.40121692E-01  1.61277759E-01
  1.10000000E+00
Contraction coefficients                   R   N=         231
  1.83473713E-03  1.40373228E-02  6.88426223E-02  2.32184443E-01  4.67941348E-01
  3.62311985E-01 -1.19332420E-01 -1.60854152E-01  1.14345644E+00  1.00000000E+00
  1.00000000E+00  1.83107443E-03  1.39501722E-02  6.84450781E-02  2.32714336E-01
  4.70192898E-01  3.58520853E-01 -1.10777550E-01 -1.48026263E-01  1.13076702E+00
  1.00000000E+00  1.00000000E+00  3.34946043E-02  2.34726953E-01  8.13757326E-01
  1.00000000E+00  1.00000000E+00  1.85159892E-03  1.42061917E-02  6.99994593E-02
  2.40078860E-01  4.84761718E-01  3.35199805E-01 -2.78217010E-03 -3.60499014E-02
 -1.16631004E-01  9.68328036E-02  6.14418023E-01  4.03798015E-01 -2.52924114E-01
  3.28518447E-02  1.08125476E+00  1.00000000E+00  1.00000000E+00  1.85159892E-03
  1.42061917E-02  6.99994593E-02  2.40078860E-01  4.84761718E-01  3.35199805E-01
 -2.78217010E-03 -3.60499014E-02 -1.16631004E-01  9.68328036E-02  6.14418023E-01
  4.03798015E-01 -2.52924114E-01  3.28518447E-02  1.08125476E+00  1.00000000E+00
  1.00000000E+00  1.83107443E-03  1.39501722E-02  6.84450781E-02  2.32714336E-01
  4.70192898E-01  3.58520853E-01 -1.10777550E-01 -1.48026263E-01  1.13076702E+00
  1.00000000E+00  1.00000000E+00  3.34946043E-02  2.34726953E-01  8.13757326E-01
  1.00000000E+00  1.00000000E+00  1.83107443E-03  1.39501722E-02  6.84450781E-02
  2.32714336E-01  4.70192898E-01  3.58520853E-01 -1.10777550E-01 -1.48026263E-01
  1.13076702E+00  1.00000000E+00  1.00000000E+00  3.34946043E-02  2.34726953E-01
  8.13757326E-01  1.00000000E+00  1.00000000E+00  1.83107443E-03  1.39501722E-02
  6.84450781E-02  2.32714336E-01  4.70192898E-01  3.58520853E-01 -1.10777550E-01
 -1.48026263E-01  1.13076702E+00  1.00000000E+00  1.00000000E+00  3.34946043E-02
  2.34726953E-01  8.13757326E-01  1.00000000E+00  1.00000000E+00  1.83107443E-03
  1.39501722E-02  6.84450781E-02  2.32714336E-01  4.70192898E-01  3.58520853E-01
 -1.10777550E-01 -1.48026263E-01  1.13076702E+00  1.00000000E+00  1.00000000E+00
  3.34946043E-02  2.34726953E-01  8.13757326E-01  1.00000000E+00  1.00000000E+00
  1.83107443E-03  1.39501722E-02  6.84450781E-02  2.32714336E-01  4.70192898E-01
  3.58520853E-01 -1.10777550E-01 -1.48026263E-01  1.13076702E+00  1.00000000E+00
  1.00000000E+00  1.83107443E-03  1.39501722E-02  6.84450781E-02  2.32714336E-01
  4.70192898E-01  3.58520853E-01 -1.10777550E-01 -1.48026263E-01  1.13076702E+00
  1.00000000E+00  1.00000000E+00  1.83473713E-03  1.40373228E-02  6.88426223E-02
  2.32184443E-01  4.67941348E-01  3.62311985E-01 -1.19332420E-01 -1.60854152E-01
  1.14345644E+00  1.00000000E+00  1.00000000E+00  1.83473713E-03  1.40373228E-02
  6.88426223E-02  2.32184443E-01  4.67941348E-01  3.62311985E-01 -1.19332420E-01
 -1.60854152E-01  1.14345644E+00  1.00000000E+00  1.00000000E+00  3.34946043E-02
  2.34726953E-01  8.13757326E-01  1.00000000E+00  1.00000000E+00  3.34946043E-02
  2.34726953E-01  8.13757326E-01  1.00000000E+00  1.00000000E+00  1.83473713E-03
  1.40373228E-02  6.88426223E-02  2.32184443E-01  4.67941348E-01  3.62311985E-01
 -1.19332420E-01 -1.60854152E-01  1.14345644E+00  1.00000000E+00  1.00000000E+00
  3.34946043E-02  2.34726953E-01  8.13757326E-01  1.00000000E+00  1.00000000E+00
  3.34946043E-02  2.34726953E-01  8.13757326E-01  1.00000000E+00  1.00000000E+00
  3.34946043E-02  2.34726953E-01  8.13757326E-01  1.00000000E+00  1.00000000E+00
  3.34946043E-02  2.34726953E-01  8.13757326E-01  1.00000000E+00  1.00000000E+00
  1.83477216E-03  1.39946270E-02  6.85865518E-02  2.32240873E-01  4.69069948E-01
  3.60455199E-01 -1.14961182E-01 -1.69117479E-01  1.14585195E+00  1.00000000E+00
  1.00000000E+00  3.34946043E-02  2.34726953E-01  8.13757326E-01  1.00000000E+00
  1.00000000E+00  3.34946043E-02  2.34726953E-01  8.13757326E-01  1.00000000E+00
  1.00000000E+00
P(S=P) Contraction coefficients            R   N=         231
  0.00000000E+00  0.00000000E+00  0.00000000E+00  0.00000000E+00  0.00000000E+00
  0.00000000E+00  6.89990666E-02  3.16423961E-01  7.44308291E-01  1.00000000E+00
  0.00000000E+00  0.00000000E+00  0.00000000E+00  0.00000000E+00  0.00000000E+00
  0.00000000E+00  0.00000000E+00  7.08742682E-02  3.39752839E-01  7.27158577E-01
  1.00000000E+00  0.00000000E+00  0.00000000E+00  0.00000000E+00  0.00000000E+00
  0.00000000E+00  0.00000000E+00  0.00000000E+00  0.00000000E+00  0.00000000E+00
  0.00000000E+00  0.00000000E+00  0.00000000E+00  4.56461619E-03  3.36935719E-02
  1.39754883E-01  3.39361717E-01  4.50920624E-01  2.38585801E-01 -1.77653127E-02
  2.74058196E-01  7.85421563E-01  1.00000000E+00  0.00000000E+00  0.00000000E+00
  0.00000000E+00  0.00000000E+00  0.00000000E+00  0.00000000E+00  0.00000000E+00
  4.56461619E-03  3.36935719E-02  1.39754883E-01  3.39361717E-01  4.50920624E-01
  2.38585801E-01 -1.77653127E-02  2.74058196E-01  7.85421563E-01  1.00000000E+00
  0.00000000E+00  0.00000000E+00  0.00000000E+00  0.00000000E+00  0.00000000E+00
  0.00000000E+00  0.00000000E+00  7.08742682E-02  3.39752839E-01  7.27158577E-01
  1.00000000E+00  0.00000000E+00  0.00000000E+00  0.00000000E+00  0.00000000E+00
  0.00000000E+00  0.00000000E+00  0.00000000E+00  0.00000000E+00  0.00000000E+00
  0.00000000E+00  0.00000000E+00  0.00000000E+00  7.08742682E-02  3.39752839E-01
  7.27158577E-01  1.00000000E+00  0.00000000E+00  0.00000000E+00  0.00000000E+00
  0.00000000E+00  0.00000000E+00  0.00000000E+00  0.00000000E+00  0.00000000E+00
  0.00000000E+00  0.00000000E+00  0.00000000E+00  0.00000000E+00  7.08742682E-02
  3.39752839E-01  7.27158577E-01  1.00000000E+00  0.00000000E+00  0.00000000E+00
  0.00000000E+00  0.00000000E+00  0.00000000E+00  0.00000000E+00  0.00000000E+00
  0.00000000E+00  0.00000000E+00  0.00000000E+00  0.00000000E+00  0.00000000E+00
  7.08742682E-02  3.39752839E-01  7.27158577E-01  1.00000000E+00  0.00000000E+00
  0.00000000E+00  0.00000000E+00  0.00000000E+00  0.00000000E+00  0.00000000E+00
  0.00000000E+00  0.00000000E+00  0.00000000E+00  0.00000000E+00  0.00000000E+00
  0.00000000E+00  7.08742682E-02  3.39752839E-01  7.27158577E-01  1.00000000E+00
  0.00000000E+00  0.00000000E+00  0.00000000E+00  0.00000000E+00  0.00000000E+00
  0.00000000E+00  0.00000000E+00  7.08742682E-02  3.39752839E-01  7.27158577E-01
  1.00000000E+00  0.00000000E+00  0.00000000E+00  0.00000000E+00  0.00000000E+00
  0.00000000E+00  0.00000000E+00  0.00000000E+00  6.89990666E-02  3.16423961E-01
  7.44308291E-01  1.00000000E+00  0.00000000E+00  0.00000000E+00  0.00000000E+00
  0.00000000E+00  0.00000000E+00  0.00000000E+00  0.00000000E+00  6.89990666E-02
  3.16423961E-01  7.44308291E-01  1.00000000E+00  0.00000000E+00  0.00000000E+00
  0.00000000E+00  0.00000000E+00  0.00000000E+00  0.00000000E+00  0.00000000E+00
  0.00000000E+00  0.00000000E+00  0.00000000E+00  0.00000000E+00  0.00000000E+00
  0.00000000E+00  0.00000000E+00  0.00000000E+00  0.00000000E+00  0.00000000E+00
  6.89990666E-02  3.16423961E-01  7.44308291E-01  1.00000000E+00  0.00000000E+00
  0.00000000E+00  0.00000000E+00  0.00000000E+00  0.00000000E+00  0.00000000E+00
  0.00000000E+00  0.00000000E+00  0.00000000E+00  0.00000000E+00  0.00000000E+00
  0.00000000E+00  0.00000000E+00  0.00000000E+00  0.00000000E+00  0.00000000E+00
  0.00000000E+00  0.00000000E+00  0.00000000E+00  0.00000000E+00  0.00000000E+00
  0.00000000E+00  0.00000000E+00  0.00000000E+00  0.00000000E+00  0.00000000E+00
  0.00000000E+00  6.75797439E-02  3.23907296E-01  7.40895140E-01  1.00000000E+00
  0.00000000E+00  0.00000000E+00  0.00000000E+00  0.00000000E+00  0.00000000E+00
  0.00000000E+00  0.00000000E+00  0.00000000E+00  0.00000000E+00  0.00000000E+00
  0.00000000E+00
Coordinates of each shell                  R   N=         291
 -4.30083088E-01 -2.77904903E-01 -6.35041447E-01 -4.30083088E-01 -2.77904903E-01
 -6.35041447E-01 -4.30083088E-01 -2.77904903E-01 -6.35041447E-01 -4.30083088E-01
 -2.77904903E-01 -6.35041447E-01 -2.69172860E-01 -3.95181239E-01 -3.30947634E+00
 -2.69172860E-01 -3.95181239E-01 -3.30947634E+00 -2.69172860E-01 -3.95181239E-01
 -3.30947634E+00 -2.69172860E-01 -3.95181239E-01 -3.30947634E+00 -1.88469994E+00
  1.20770008E-01 -4.00748448E+00 -1.88469994E+00  1.20770008E-01 -4.00748448E+00
 -1.88469994E+00  1.20770008E-01 -4.00748448E+00 -3.31231154E+00 -2.02917200E+00
  4.40798533E-01 -3.31231154E+00 -2.02917200E+00  4.40798533E-01 -3.31231154E+00
 -2.02917200E+00  4.40798533E-01 -3.31231154E+00 -2.02917200E+00  4.40798533E-01
 -3.31231154E+00 -2.02917200E+00  4.40798533E-01 -5.54145017E-01  3.08507055E+00
  4.45466157E-01 -5.54145017E-01  3.08507055E+00  4.45466157E-01 -5.54145017E-01
  3.08507055E+00  4.45466157E-01 -5.54145017E-01  3.08507055E+00  4.45466157E-01
 -5.54145017E-01  3.08507055E+00  4.45466157E-01 -5.24814728E+00 -1.31162491E+00
 -1.80631260E+00 -5.24814728E+00 -1.31162491E+00 -1.80631260E+00 -5.24814728E+00
 -1.31162491E+00 -1.80631260E+00 -5.24814728E+00 -1.31162491E+00 -1.80631260E+00
 -6.43376089E+00 -2.65488053E+00 -2.19831738E+00 -6.43376089E+00 -2.65488053E+00
 -2.19831738E+00 -6.43376089E+00 -2.65488053E+00 -2.19831738E+00 -2.78195866E+00
 -4.97729571E+00 -1.93147890E-01 -2.78195866E+00 -4.97729571E+00 -1.93147890E-01
 -2.78195866E+00 -4.97729571E+00 -1.93147890E-01 -2.78195866E+00 -4.97729571E+00
 -1.93147890E-01 -2.42464884E+00 -5.94946517E+00  1.31957787E+00 -2.42464884E+00
 -5.94946517E+00  1.31957787E+00 -2.42464884E+00 -5.94946517E+00  1.31957787E+00
 -3.30687159E+00  3.85343204E+00 -6.17089048E-01 -3.30687159E+00  3.85343204E+00
 -6.17089048E-01 -3.30687159E+00  3.85343204E+00 -6.17089048E-01 -3.30687159E+00
  3.85343204E+00 -6.17089048E-01 -3.61518117E+00  5.66191871E+00 -6.21643288E-01
 -3.61518117E+00  5.66191871E+00 -6.21643288E-01 -3.61518117E+00  5.66191871E+00
 -6.21643288E-01  1.27435333E+00  4.64041041E+00 -1.45631642E+00  1.27435333E+00
  4.64041041E+00 -1.45631642E+00  1.27435333E+00  4.64041041E+00 -1.45631642E+00
  1.27435333E+00  4.64041041E+00 -1.45631642E+00  2.78256240E+00  5.23667632E+00
 -6.03728685E-01  2.78256240E+00  5.23667632E+00 -6.03728685E-01  2.78256240E+00
  5.23667632E+00 -6.03728685E-01 -7.84427520E-03  3.52197546E+00  3.17050792E+00
 -7.84427520E-03  3.52197546E+00  3.17050792E+00 -7.84427520E-03  3.52197546E+00
  3.17050792E+00 -7.84427520E-03  3.52197546E+00  3.17050792E+00 -4.10977617E+00
 -1.52370839E+00  3.08936308E+00 -4.10977617E+00 -1.52370839E+00  3.08936308E+00
 -4.10977617E+00 -1.52370839E+00  3.08936308E+00 -4.10977617E+00 -1.52370839E+00
  3.08936308E+00  1.91187396E+00 -1.62488181E+00  4.70882973E-01  1.91187396E+00
 -1.62488181E+00  4.70882973E-01  1.91187396E+00 -1.62488181E+00  4.70882973E-01
  1.91187396E+00 -1.62488181E+00  4.70882973E-01  4.47883966E+00 -5.06748680E-01
 -2.89882970E-01  4.47883966E+00 -5.06748680E-01 -2.89882970E-01  4.47883966E+00
 -5.06748680E-01 -2.89882970E-01  4.47883966E+00 -5.06748680E-01 -2.89882970E-01
  1.81827665E+00 -3.58375305E+00 -1.88933800E-01  1.81827665E+00 -3.58375305E+00
 -1.88933800E-01  1.81827665E+00 -3.58375305E+00 -1.88933800E-01  1.73745225E+00
 -1.66125911E+00  2.53281984E+00  1.73745225E+00 -1.66125911E+00  2.53281984E+00
  1.73745225E+00 -1.66125911E+00  2.53281984E+00  6.66015126E+00 -2.24986894E+00
  4.69824727E-01  6.66015126E+00 -2.24986894E+00  4.69824727E-01  6.66015126E+00
 -2.24986894E+00  4.69824727E-01  6.66015126E+00 -2.24986894E+00  4.69824727E-01
  4.54293904E+00 -1.90899829E-01 -2.33163756E+00  4.54293904E+00 -1.90899829E-01
 -2.33163756E+00  4.54293904E+00 -1.90899829E-01 -2.33163756E+00  4.76413085E+00
  1.33095340E+00  6.26312947E-01  4.76413085E+00  1.33095340E+00  6.26312947E-01
  4.76413085E+00  1.33095340E+00  6.26312947E-01  6.52093531E+00 -2.67086218E+00
  2.50791325E+00  6.52093531E+00 -2.67086218E+00  2.50791325E+00  6.52093531E+00
 -2.67086218E+00  2.50791325E+00  6.45853714E+00 -4.06060459E+00 -5.19125646E-01
  6.45853714E+00 -4.06060459E+00 -5.19125646E-01  6.45853714E+00 -4.06060459E+00
 -5.19125646E-01  9.09504401E+00 -1.13766961E+00 -2.72799846E-01  9.09504401E+00