 Entering Gaussian System, Link 0=g16
 Input=w-alendronate_cation_scf_g09.com
 Output=w-alendronate_cation_scf_g09.log
 Initial command:
 /usr/local//g16/l1.exe "/home/orison/scrgauss/Gau-22877.inp" -scrdir="/home/orison/scrgauss/"
 Entering Link 1 = /usr/local//g16/l1.exe PID=     22879.
  
 Copyright (c) 1988,1990,1992,1993,1995,1998,2003,2009,2016,
            Gaussian, Inc.  All Rights Reserved.
  
 This is part of the Gaussian(R) 16 program.  It is based on
 the Gaussian(R) 09 system (copyright 2009, Gaussian, Inc.),
 the Gaussian(R) 03 system (copyright 2003, Gaussian, Inc.),
 the Gaussian(R) 98 system (copyright 1998, Gaussian, Inc.),
 the Gaussian(R) 94 system (copyright 1995, Gaussian, Inc.),
 the Gaussian 92(TM) system (copyright 1992, Gaussian, Inc.),
 the Gaussian 90(TM) system (copyright 1990, Gaussian, Inc.),
 the Gaussian 88(TM) system (copyright 1988, Gaussian, Inc.),
 the Gaussian 86(TM) system (copyright 1986, Carnegie Mellon
 University), and the Gaussian 82(TM) system (copyright 1983,
 Carnegie Mellon University). Gaussian is a federally registered
 trademark of Gaussian, Inc.
  
 This software contains proprietary and confidential information,
 including trade secrets, belonging to Gaussian, Inc.
  
 This software is provided under written license and may be
 used, copied, transmitted, or stored only in accord with that
 written license.
  
 The following legend is applicable only to US Government
 contracts under FAR:
  
                    RESTRICTED RIGHTS LEGEND
  
 Use, reproduction and disclosure by the US Government is
 subject to restrictions as set forth in subparagraphs (a)
 and (c) of the Commercial Computer Software - Restricted
 Rights clause in FAR 52.227-19.
  
 Gaussian, Inc.
 340 Quinnipiac St., Bldg. 40, Wallingford CT 06492
  
  
 ---------------------------------------------------------------
 Warning -- This program may not be used in any manner that
 competes with the business of Gaussian, Inc. or will provide
 assistance to any competitor of Gaussian, Inc.  The licensee
 of this program is prohibited from giving any competitor of
 Gaussian, Inc. access to this program.  By using this program,
 the user acknowledges that Gaussian, Inc. is engaged in the
 business of creating and licensing software in the field of
 computational chemistry and represents and warrants to the
 licensee that it is not a competitor of Gaussian, Inc. and that
 it will not use this program in any manner prohibited above.
 ---------------------------------------------------------------
  

 Cite this work as:
 Gaussian 16, Revision A.03,
 M. J. Frisch, G. W. Trucks, H. B. Schlegel, G. E. Scuseria, 
 M. A. Robb, J. R. Cheeseman, G. Scalmani, V. Barone, 
 G. A. Petersson, H. Nakatsuji, X. Li, M. Caricato, A. V. Marenich, 
 J. Bloino, B. G. Janesko, R. Gomperts, B. Mennucci, H. P. Hratchian, 
 J. V. Ortiz, A. F. Izmaylov, J. L. Sonnenberg, D. Williams-Young, 
 F. Ding, F. Lipparini, F. Egidi, J. Goings, B. Peng, A. Petrone, 
 T. Henderson, D. Ranasinghe, V. G. Zakrzewski, J. Gao, N. Rega, 
 G. Zheng, W. Liang, M. Hada, M. Ehara, K. Toyota, R. Fukuda, 
 J. Hasegawa, M. Ishida, T. Nakajima, Y. Honda, O. Kitao, H. Nakai, 
 T. Vreven, K. Throssell, J. A. Montgomery, Jr., J. E. Peralta, 
 F. Ogliaro, M. J. Bearpark, J. J. Heyd, E. N. Brothers, K. N. Kudin, 
 V. N. Staroverov, T. A. Keith, R. Kobayashi, J. Normand, 
 K. Raghavachari, A. P. Rendell, J. C. Burant, S. S. Iyengar, 
 J. Tomasi, M. Cossi, J. M. Millam, M. Klene, C. Adamo, R. Cammi, 
 J. W. Ochterski, R. L. Martin, K. Morokuma, O. Farkas, 
 J. B. Foresman, and D. J. Fox, Gaussian, Inc., Wallingford CT, 2016.
 
 ******************************************
 Gaussian 16:  EM64L-G16RevA.03 25-Dec-2016
                22-Jan-2021 
 ******************************************
 %nproc=8
 Will use up to    8 processors via shared memory.
 %Mem=4GB
 ----------------------------------------------------------------------
 #t B3LYP/6-31G(d,p) scrf=(solvent=water) # Gfinput IOP(6/7=3) Pop=hirs
 hfeld Density Test # Units(Ang,Deg)
 ----------------------------------------------------------------------
 -------------------------
 w-alendronate-opt-g09.log
 -------------------------
 Symbolic Z-matrix:
 Charge =  1 Multiplicity = 2
 C                     0.22759   0.14706  -0.33605 
 O                     0.14244   0.20912  -1.7513 
 H                     0.99734  -0.06391  -2.12067 
 P                     1.7528    1.07379   0.23326 
 P                     0.29324  -1.63255   0.23573 
 O                     2.7772    0.69408  -0.95586 
 H                     3.4046    1.4049   -1.1633 
 O                     1.47215   2.63387  -0.10221 
 H                     1.28307   3.14832   0.69829 
 O                     1.74992  -2.03915  -0.32655 
 H                     1.91307  -2.99616  -0.32896 
 O                    -0.67436  -2.4556   -0.77065 
 H                    -1.47247  -2.77113  -0.31948 
 O                     0.00415  -1.86375   1.67776 
 O                     2.1748    0.80631   1.63482 
 C                    -1.01172   0.85985   0.24918 
 C                    -2.3701    0.26816  -0.1534 
 H                    -0.96219   1.89644  -0.09998 
 H                    -0.91942   0.8791    1.34031 
 C                    -3.5244    1.19058   0.24862 
 H                    -2.40402   0.10102  -1.23385 
 H                    -2.52107  -0.70431   0.33143 
 H                    -3.45073   1.41336   1.32713 
 H                    -3.41771   2.14878  -0.27471 
 N                    -4.81289   0.60203  -0.14436 
 H                    -4.99049  -0.21768   0.43474 
 H                    -5.559     1.25541   0.08647 
 
                    Distance matrix (angstroms):
                    1          2          3          4          5
     1  C    0.000000
     2  O    1.419167   0.000000
     3  H    1.954966   0.970481   0.000000
     4  P    1.873288   2.698035   2.721409   0.000000
     5  P    1.870362   2.713444   2.917021   3.074833   0.000000
     6  O    2.680281   2.794615   2.258148   1.614801   3.605988
     7  H    3.515664   3.523822   2.978063   2.188254   4.567707
     8  O    2.790669   3.219789   3.402593   1.620233   4.439186
     9  H    3.345364   3.992546   4.283293   2.177286   4.904125
    10  O    2.664037   3.109441   2.772511   3.162877   1.613505
    11  H    3.566613   3.928359   3.556245   4.111724   2.191382
    12  O    2.788589   2.954584   3.215170   4.399493   1.620636
    13  H    3.377323   3.679665   4.083294   5.048891   2.173098
    14  O    2.854595   4.009285   4.319019   3.711266   1.488784
    15  O    2.847906   3.994112   4.030806   1.487952   3.383158
    16  C    1.544815   2.399470   3.241272   2.772832   2.813389
    17  C    2.606918   2.978192   3.914087   4.218631   3.295072
    18  H    2.128764   2.606552   3.430148   2.856392   3.760662
    19  H    2.159096   3.336836   4.067139   2.899004   2.999838
    20  C    3.938045   4.290531   5.256749   5.278515   4.748116
    21  H    2.780924   2.600750   3.518935   4.514183   3.527059
    22  H    2.953894   3.502343   4.336141   4.630037   2.964984
    23  H    4.230806   4.882397   5.818503   5.328094   4.948336
    24  H    4.159190   4.314773   5.272213   5.305451   5.322608
    25  N    5.064601   5.224168   6.173172   6.593439   5.586625
    26  H    5.287297   5.595346   6.512133   6.868803   5.473506
    27  H    5.906910   6.080998   7.042561   7.315528   6.527733
                    6          7          8          9         10
     6  O    0.000000
     7  H    0.970529   0.000000
     8  O    2.488907   2.524013   0.000000
     9  H    3.315408   3.317517   0.970160   0.000000
    10  O    2.986952   3.911470   4.686641   5.308304   0.000000
    11  H    3.841562   4.721241   5.651820   6.261532   0.970820
    12  O    4.676329   5.629880   5.563903   6.115001   2.499558
    13  H    5.520177   6.475884   6.158897   6.608233   3.304488
    14  O    4.600897   5.506247   5.054889   5.264584   2.663782
    15  O    2.662162   3.114513   2.617435   2.675310   3.481973
    16  C    3.979386   4.668625   3.072496   3.271828   4.045037
    17  C    5.226858   5.971535   4.512437   4.729307   4.725275
    18  H    4.020104   4.521185   2.543584   2.691771   4.784950
    19  H    4.355643   5.024110   3.298437   3.226842   4.291851
    20  C    6.434862   7.074637   5.212646   5.210251   6.211315
    21  H    5.222455   5.953583   4.766616   5.158860   4.760120
    22  H    5.628879   6.465025   5.222767   5.426677   4.522841
    23  H    6.672070   7.293686   5.269479   5.080786   6.457650
    24  H    6.399768   6.920033   4.916889   4.903381   6.651755
    25  N    7.633903   8.319254   6.605443   6.659908   7.076687
    26  H    7.943682   8.698508   7.084163   7.124393   7.023563
    27  H    8.419844   9.051541   7.167484   7.125402   8.027766
                   11         12         13         14         15
    11  H    0.000000
    12  O    2.679942   0.000000
    13  H    3.393024   0.969584   0.000000
    14  O    2.992199   2.608711   2.644374   0.000000
    15  O    4.287623   4.954196   5.469913   3.441335   0.000000
    16  C    4.874162   3.485122   3.704009   3.238955   3.475165
    17  C    5.388149   3.267323   3.173422   3.679028   4.913599
    18  H    5.679532   4.412811   4.700508   4.270035   3.746815
    19  H    5.082037   3.954293   4.047832   2.913774   3.109056
    20  C    6.886833   4.738804   4.497588   4.880783   5.877933
    21  H    5.389677   3.121311   3.154854   4.258765   5.449064
    22  H    5.034907   2.773434   2.407279   3.087660   5.102156
    23  H    7.138407   5.203630   4.912718   4.774787   5.666548
    24  H    7.408817   5.382587   5.290697   5.623314   6.060091
    25  N    7.630176   5.183510   4.750503   5.709997   7.213531
    26  H    7.480797   5.009015   4.411963   5.403802   7.336902
    27  H    8.606989   6.194026   5.751308   6.573431   7.900047
                   16         17         18         19         20
    16  C    0.000000
    17  C    1.535371   0.000000
    18  H    1.094936   2.153221   0.000000
    19  H    1.095196   2.169998   1.763872   0.000000
    20  C    2.534353   1.531302   2.680425   2.841607   0.000000
    21  H    2.171106   1.093827   2.566723   3.071766   2.154091
    22  H    2.175201   1.097064   3.062698   2.467855   2.145725
    23  H    2.723439   2.161299   2.909096   2.587110   1.103740
    24  H    2.779315   2.156139   2.474628   3.234475   1.096998
    25  N    3.830175   2.465517   4.062679   4.176137   1.470045
    26  H    4.126271   2.729174   4.580680   4.312377   2.041386
    27  H    4.567351   3.346832   4.645034   4.820729   2.042080
                   21         22         23         24         25
    21  H    0.000000
    22  H    1.764188   0.000000
    23  H    3.062100   2.517978   0.000000
    24  H    2.478071   3.051474   1.762902   0.000000
    25  N    2.690846   2.680548   2.163104   2.087092   0.000000
    26  H    3.094445   2.519031   2.414024   2.928667   1.019227
    27  H    3.609676   3.623469   2.451324   2.348123   1.018267
                   26         27
    26  H    0.000000
    27  H    1.616938   0.000000
 Framework group  C1[X(C4H13NO7P2)]
 Deg. of freedom    75
                         Standard orientation:                         
 ---------------------------------------------------------------------
 Center     Atomic      Atomic             Coordinates (Angstroms)
 Number     Number       Type             X           Y           Z
 ---------------------------------------------------------------------
      1          6           0       -0.227590   -0.147061   -0.336049
      2          8           0       -0.142440   -0.209121   -1.751299
      3          1           0       -0.997340    0.063909   -2.120669
      4         15           0       -1.752800   -1.073792    0.233261
      5         15           0       -0.293241    1.632549    0.235731
      6          8           0       -2.777200   -0.694082   -0.955859
      7          1           0       -3.404600   -1.404902   -1.163299
      8          8           0       -1.472149   -2.633871   -0.102209
      9          1           0       -1.283069   -3.148321    0.698291
     10          8           0       -1.749921    2.039148   -0.326549
     11          1           0       -1.913071    2.996158   -0.328959
     12          8           0        0.674359    2.455599   -0.770649
     13          1           0        1.472469    2.771130   -0.319479
     14          8           0       -0.004151    1.863749    1.677761
     15          8           0       -2.174800   -0.806312    1.634821
     16          6           0        1.011720   -0.859850    0.249181
     17          6           0        2.370100   -0.268160   -0.153399
     18          1           0        0.962191   -1.896440   -0.099979
     19          1           0        0.919420   -0.879100    1.340311
     20          6           0        3.524400   -1.190579    0.248621
     21          1           0        2.404020   -0.101020   -1.233849
     22          1           0        2.521069    0.704310    0.331431
     23          1           0        3.450730   -1.413359    1.327131
     24          1           0        3.417711   -2.148779   -0.274709
     25          7           0        4.812890   -0.602029   -0.144359
     26          1           0        4.990490    0.217681    0.434741
     27          1           0        5.559000   -1.255409    0.086471
 ---------------------------------------------------------------------
 Rotational constants (GHZ):           0.7002564           0.4087084           0.3168227
 AO basis set in the form of general basis input (Overlap normalization):
      1 0
 S   6 1.00       0.000000000000
      0.3047524880D+04  0.1834737132D-02
      0.4573695180D+03  0.1403732281D-01
      0.1039486850D+03  0.6884262226D-01
      0.2921015530D+02  0.2321844432D+00
      0.9286662960D+01  0.4679413484D+00
      0.3163926960D+01  0.3623119853D+00
 SP   3 1.00       0.000000000000
      0.7868272350D+01 -0.1193324198D+00  0.6899906659D-01
      0.1881288540D+01 -0.1608541517D+00  0.3164239610D+00
      0.5442492580D+00  0.1143456438D+01  0.7443082909D+00
 SP   1 1.00       0.000000000000
      0.1687144782D+00  0.1000000000D+01  0.1000000000D+01
 D   1 1.00       0.000000000000
      0.8000000000D+00  0.1000000000D+01
 ****
      2 0
 S   6 1.00       0.000000000000
      0.5484671660D+04  0.1831074430D-02
      0.8252349460D+03  0.1395017220D-01
      0.1880469580D+03  0.6844507810D-01
      0.5296450000D+02  0.2327143360D+00
      0.1689757040D+02  0.4701928980D+00
      0.5799635340D+01  0.3585208530D+00
 SP   3 1.00       0.000000000000
      0.1553961625D+02 -0.1107775495D+00  0.7087426823D-01
      0.3599933586D+01 -0.1480262627D+00  0.3397528391D+00
      0.1013761750D+01  0.1130767015D+01  0.7271585773D+00
 SP   1 1.00       0.000000000000
      0.2700058226D+00  0.1000000000D+01  0.1000000000D+01
 D   1 1.00       0.000000000000
      0.8000000000D+00  0.1000000000D+01
 ****
      3 0
 S   3 1.00       0.000000000000
      0.1873113696D+02  0.3349460434D-01
      0.2825394365D+01  0.2347269535D+00
      0.6401216923D+00  0.8137573261D+00
 S   1 1.00       0.000000000000
      0.1612777588D+00  0.1000000000D+01
 P   1 1.00       0.000000000000
      0.1100000000D+01  0.1000000000D+01
 ****
      4 0
 S   6 1.00       0.000000000000
      0.1941330000D+05  0.1851598923D-02
      0.2909420000D+04  0.1420619174D-01
      0.6613640000D+03  0.6999945928D-01
      0.1857590000D+03  0.2400788603D+00
      0.5919430000D+02  0.4847617180D+00
      0.2003100000D+02  0.3351998050D+00
 SP   6 1.00       0.000000000000
      0.3394780000D+03 -0.2782170105D-02  0.4564616191D-02
      0.8101010000D+02 -0.3604990135D-01  0.3369357188D-01
      0.2587800000D+02 -0.1166310044D+00  0.1397548834D+00
      0.9452210000D+01  0.9683280364D-01  0.3393617168D+00
      0.3665660000D+01  0.6144180231D+00  0.4509206237D+00
      0.1467460000D+01  0.4037980152D+00  0.2385858009D+00
 SP   3 1.00       0.000000000000
      0.2156230000D+01 -0.2529241139D+00 -0.1776531273D-01
      0.7489970000D+00  0.3285184468D-01  0.2740581964D+00
      0.2831450000D+00  0.1081254762D+01  0.7854215630D+00
 SP   1 1.00       0.000000000000
      0.9983170000D-01  0.1000000000D+01  0.1000000000D+01
 D   1 1.00       0.000000000000
      0.5500000000D+00  0.1000000000D+01
 ****
      5 0
 S   6 1.00       0.000000000000
      0.1941330000D+05  0.1851598923D-02
      0.2909420000D+04  0.1420619174D-01
      0.6613640000D+03  0.6999945928D-01
      0.1857590000D+03  0.2400788603D+00
      0.5919430000D+02  0.4847617180D+00
      0.2003100000D+02  0.3351998050D+00
 SP   6 1.00       0.000000000000
      0.3394780000D+03 -0.2782170105D-02  0.4564616191D-02
      0.8101010000D+02 -0.3604990135D-01  0.3369357188D-01
      0.2587800000D+02 -0.1166310044D+00  0.1397548834D+00
      0.9452210000D+01  0.9683280364D-01  0.3393617168D+00
      0.3665660000D+01  0.6144180231D+00  0.4509206237D+00
      0.1467460000D+01  0.4037980152D+00  0.2385858009D+00
 SP   3 1.00       0.000000000000
      0.2156230000D+01 -0.2529241139D+00 -0.1776531273D-01
      0.7489970000D+00  0.3285184468D-01  0.2740581964D+00
      0.2831450000D+00  0.1081254762D+01  0.7854215630D+00
 SP   1 1.00       0.000000000000
      0.9983170000D-01  0.1000000000D+01  0.1000000000D+01
 D   1 1.00       0.000000000000
      0.5500000000D+00  0.1000000000D+01
 ****
      6 0
 S   6 1.00       0.000000000000
      0.5484671660D+04  0.1831074430D-02
      0.8252349460D+03  0.1395017220D-01
      0.1880469580D+03  0.6844507810D-01
      0.5296450000D+02  0.2327143360D+00
      0.1689757040D+02  0.4701928980D+00
      0.5799635340D+01  0.3585208530D+00
 SP   3 1.00       0.000000000000
      0.1553961625D+02 -0.1107775495D+00  0.7087426823D-01
      0.3599933586D+01 -0.1480262627D+00  0.3397528391D+00
      0.1013761750D+01  0.1130767015D+01  0.7271585773D+00
 SP   1 1.00       0.000000000000
      0.2700058226D+00  0.1000000000D+01  0.1000000000D+01
 D   1 1.00       0.000000000000
      0.8000000000D+00  0.1000000000D+01
 ****
      7 0
 S   3 1.00       0.000000000000
      0.1873113696D+02  0.3349460434D-01
      0.2825394365D+01  0.2347269535D+00
      0.6401216923D+00  0.8137573261D+00
 S   1 1.00       0.000000000000
      0.1612777588D+00  0.1000000000D+01
 P   1 1.00       0.000000000000
      0.1100000000D+01  0.1000000000D+01
 ****
      8 0
 S   6 1.00       0.000000000000
      0.5484671660D+04  0.1831074430D-02
      0.8252349460D+03  0.1395017220D-01
      0.1880469580D+03  0.6844507810D-01
      0.5296450000D+02  0.2327143360D+00
      0.1689757040D+02  0.4701928980D+00
      0.5799635340D+01  0.3585208530D+00
 SP   3 1.00       0.000000000000
      0.1553961625D+02 -0.1107775495D+00  0.7087426823D-01
      0.3599933586D+01 -0.1480262627D+00  0.3397528391D+00
      0.1013761750D+01  0.1130767015D+01  0.7271585773D+00
 SP   1 1.00       0.000000000000
      0.2700058226D+00  0.1000000000D+01  0.1000000000D+01
 D   1 1.00       0.000000000000
      0.8000000000D+00  0.1000000000D+01
 ****
      9 0
 S   3 1.00       0.000000000000
      0.1873113696D+02  0.3349460434D-01
      0.2825394365D+01  0.2347269535D+00
      0.6401216923D+00  0.8137573261D+00
 S   1 1.00       0.000000000000
      0.1612777588D+00  0.1000000000D+01
 P   1 1.00       0.000000000000
      0.1100000000D+01  0.1000000000D+01
 ****
     10 0
 S   6 1.00       0.000000000000
      0.5484671660D+04  0.1831074430D-02
      0.8252349460D+03  0.1395017220D-01
      0.1880469580D+03  0.6844507810D-01
      0.5296450000D+02  0.2327143360D+00
      0.1689757040D+02  0.4701928980D+00
      0.5799635340D+01  0.3585208530D+00
 SP   3 1.00       0.000000000000
      0.1553961625D+02 -0.1107775495D+00  0.7087426823D-01
      0.3599933586D+01 -0.1480262627D+00  0.3397528391D+00
      0.1013761750D+01  0.1130767015D+01  0.7271585773D+00
 SP   1 1.00       0.000000000000
      0.2700058226D+00  0.1000000000D+01  0.1000000000D+01
 D   1 1.00       0.000000000000
      0.8000000000D+00  0.1000000000D+01
 ****
     11 0
 S   3 1.00       0.000000000000
      0.1873113696D+02  0.3349460434D-01
      0.2825394365D+01  0.2347269535D+00
      0.6401216923D+00  0.8137573261D+00
 S   1 1.00       0.000000000000
      0.1612777588D+00  0.1000000000D+01
 P   1 1.00       0.000000000000
      0.1100000000D+01  0.1000000000D+01
 ****
     12 0
 S   6 1.00       0.000000000000
      0.5484671660D+04  0.1831074430D-02
      0.8252349460D+03  0.1395017220D-01
      0.1880469580D+03  0.6844507810D-01
      0.5296450000D+02  0.2327143360D+00
      0.1689757040D+02  0.4701928980D+00
      0.5799635340D+01  0.3585208530D+00
 SP   3 1.00       0.000000000000
      0.1553961625D+02 -0.1107775495D+00  0.7087426823D-01
      0.3599933586D+01 -0.1480262627D+00  0.3397528391D+00
      0.1013761750D+01  0.1130767015D+01  0.7271585773D+00
 SP   1 1.00       0.000000000000
      0.2700058226D+00  0.1000000000D+01  0.1000000000D+01
 D   1 1.00       0.000000000000
      0.8000000000D+00  0.1000000000D+01
 ****
     13 0
 S   3 1.00       0.000000000000
      0.1873113696D+02  0.3349460434D-01
      0.2825394365D+01  0.2347269535D+00
      0.6401216923D+00  0.8137573261D+00
 S   1 1.00       0.000000000000
      0.1612777588D+00  0.1000000000D+01
 P   1 1.00       0.000000000000
      0.1100000000D+01  0.1000000000D+01
 ****
     14 0
 S   6 1.00       0.000000000000
      0.5484671660D+04  0.1831074430D-02
      0.8252349460D+03  0.1395017220D-01
      0.1880469580D+03  0.6844507810D-01
      0.5296450000D+02  0.2327143360D+00
      0.1689757040D+02  0.4701928980D+00
      0.5799635340D+01  0.3585208530D+00
 SP   3 1.00       0.000000000000
      0.1553961625D+02 -0.1107775495D+00  0.7087426823D-01
      0.3599933586D+01 -0.1480262627D+00  0.3397528391D+00
      0.1013761750D+01  0.1130767015D+01  0.7271585773D+00
 SP   1 1.00       0.000000000000
      0.2700058226D+00  0.1000000000D+01  0.1000000000D+01
 D   1 1.00       0.000000000000
      0.8000000000D+00  0.1000000000D+01
 ****
     15 0
 S   6 1.00       0.000000000000
      0.5484671660D+04  0.1831074430D-02
      0.8252349460D+03  0.1395017220D-01
      0.1880469580D+03  0.6844507810D-01
      0.5296450000D+02  0.2327143360D+00
      0.1689757040D+02  0.4701928980D+00
      0.5799635340D+01  0.3585208530D+00
 SP   3 1.00       0.000000000000
      0.1553961625D+02 -0.1107775495D+00  0.7087426823D-01
      0.3599933586D+01 -0.1480262627D+00  0.3397528391D+00
      0.1013761750D+01  0.1130767015D+01  0.7271585773D+00
 SP   1 1.00       0.000000000000
      0.2700058226D+00  0.1000000000D+01  0.1000000000D+01
 D   1 1.00       0.000000000000
      0.8000000000D+00  0.1000000000D+01
 ****
     16 0
 S   6 1.00       0.000000000000
      0.3047524880D+04  0.1834737132D-02
      0.4573695180D+03  0.1403732281D-01
      0.1039486850D+03  0.6884262226D-01
      0.2921015530D+02  0.2321844432D+00
      0.9286662960D+01  0.4679413484D+00
      0.3163926960D+01  0.3623119853D+00
 SP   3 1.00       0.000000000000
      0.7868272350D+01 -0.1193324198D+00  0.6899906659D-01
      0.1881288540D+01 -0.1608541517D+00  0.3164239610D+00
      0.5442492580D+00  0.1143456438D+01  0.7443082909D+00
 SP   1 1.00       0.000000000000
      0.1687144782D+00  0.1000000000D+01  0.1000000000D+01
 D   1 1.00       0.000000000000
      0.8000000000D+00  0.1000000000D+01
 ****
     17 0
 S   6 1.00       0.000000000000
      0.3047524880D+04  0.1834737132D-02
      0.4573695180D+03  0.1403732281D-01
      0.1039486850D+03  0.6884262226D-01
      0.2921015530D+02  0.2321844432D+00
      0.9286662960D+01  0.4679413484D+00
      0.3163926960D+01  0.3623119853D+00
 SP   3 1.00       0.000000000000
      0.7868272350D+01 -0.1193324198D+00  0.6899906659D-01
      0.1881288540D+01 -0.1608541517D+00  0.3164239610D+00
      0.5442492580D+00  0.1143456438D+01  0.7443082909D+00
 SP   1 1.00       0.000000000000
      0.1687144782D+00  0.1000000000D+01  0.1000000000D+01
 D   1 1.00       0.000000000000
      0.8000000000D+00  0.1000000000D+01
 ****
     18 0
 S   3 1.00       0.000000000000
      0.1873113696D+02  0.3349460434D-01
      0.2825394365D+01  0.2347269535D+00
      0.6401216923D+00  0.8137573261D+00
 S   1 1.00       0.000000000000
      0.1612777588D+00  0.1000000000D+01
 P   1 1.00       0.000000000000
      0.1100000000D+01  0.1000000000D+01
 ****
     19 0
 S   3 1.00       0.000000000000
      0.1873113696D+02  0.3349460434D-01
      0.2825394365D+01  0.2347269535D+00
      0.6401216923D+00  0.8137573261D+00
 S   1 1.00       0.000000000000
      0.1612777588D+00  0.1000000000D+01
 P   1 1.00       0.000000000000
      0.1100000000D+01  0.1000000000D+01
 ****
     20 0
 S   6 1.00       0.000000000000
      0.3047524880D+04  0.1834737132D-02
      0.4573695180D+03  0.1403732281D-01
      0.1039486850D+03  0.6884262226D-01
      0.2921015530D+02  0.2321844432D+00
      0.9286662960D+01  0.4679413484D+00
      0.3163926960D+01  0.3623119853D+00
 SP   3 1.00       0.000000000000
      0.7868272350D+01 -0.1193324198D+00  0.6899906659D-01
      0.1881288540D+01 -0.1608541517D+00  0.3164239610D+00
      0.5442492580D+00  0.1143456438D+01  0.7443082909D+00
 SP   1 1.00       0.000000000000
      0.1687144782D+00  0.1000000000D+01  0.1000000000D+01
 D   1 1.00       0.000000000000
      0.8000000000D+00  0.1000000000D+01
 ****
     21 0
 S   3 1.00       0.000000000000
      0.1873113696D+02  0.3349460434D-01
      0.2825394365D+01  0.2347269535D+00
      0.6401216923D+00  0.8137573261D+00
 S   1 1.00       0.000000000000
      0.1612777588D+00  0.1000000000D+01
 P   1 1.00       0.000000000000
      0.1100000000D+01  0.1000000000D+01
 ****
     22 0
 S   3 1.00       0.000000000000
      0.1873113696D+02  0.3349460434D-01
      0.2825394365D+01  0.2347269535D+00
      0.6401216923D+00  0.8137573261D+00
 S   1 1.00       0.000000000000
      0.1612777588D+00  0.1000000000D+01
 P   1 1.00       0.000000000000
      0.1100000000D+01  0.1000000000D+01
 ****
     23 0
 S   3 1.00       0.000000000000
      0.1873113696D+02  0.3349460434D-01
      0.2825394365D+01  0.2347269535D+00
      0.6401216923D+00  0.8137573261D+00
 S   1 1.00       0.000000000000
      0.1612777588D+00  0.1000000000D+01
 P   1 1.00       0.000000000000
      0.1100000000D+01  0.1000000000D+01
 ****
     24 0
 S   3 1.00       0.000000000000
      0.1873113696D+02  0.3349460434D-01
      0.2825394365D+01  0.2347269535D+00
      0.6401216923D+00  0.8137573261D+00
 S   1 1.00       0.000000000000
      0.1612777588D+00  0.1000000000D+01
 P   1 1.00       0.000000000000
      0.1100000000D+01  0.1000000000D+01
 ****
     25 0
 S   6 1.00       0.000000000000
      0.4173511460D+04  0.1834772160D-02
      0.6274579110D+03  0.1399462700D-01
      0.1429020930D+03  0.6858655181D-01
      0.4023432930D+02  0.2322408730D+00
      0.1282021290D+02  0.4690699481D+00
      0.4390437010D+01  0.3604551991D+00
 SP   3 1.00       0.000000000000
      0.1162636186D+02 -0.1149611817D+00  0.6757974388D-01
      0.2716279807D+01 -0.1691174786D+00  0.3239072959D+00
      0.7722183966D+00  0.1145851947D+01  0.7408951398D+00
 SP   1 1.00       0.000000000000
      0.2120314975D+00  0.1000000000D+01  0.1000000000D+01
 D   1 1.00       0.000000000000
      0.8000000000D+00  0.1000000000D+01
 ****
     26 0
 S   3 1.00       0.000000000000
      0.1873113696D+02  0.3349460434D-01
      0.2825394365D+01  0.2347269535D+00
      0.6401216923D+00  0.8137573261D+00
 S   1 1.00       0.000000000000
      0.1612777588D+00  0.1000000000D+01
 P   1 1.00       0.000000000000
      0.1100000000D+01  0.1000000000D+01
 ****
     27 0
 S   3 1.00       0.000000000000
      0.1873113696D+02  0.3349460434D-01
      0.2825394365D+01  0.2347269535D+00
      0.6401216923D+00  0.8137573261D+00
 S   1 1.00       0.000000000000
      0.1612777588D+00  0.1000000000D+01
 P   1 1.00       0.000000000000
      0.1100000000D+01  0.1000000000D+01
 ****

   283 basis functions,   531 primitive gaussians,   283 cartesian basis functions
    65 alpha electrons       64 beta electrons
       nuclear repulsion energy      1377.7297369403 Hartrees.
 NAtoms=   27 NActive=   27 NUniq=   27 SFac= 1.00D+00 NAtFMM=   60 NAOKFM=F Big=F
 ------------------------------------------------------------------------------
 Polarizable Continuum Model (PCM)
 =================================
 Model                : PCM.
 Atomic radii         : UFF (Universal Force Field).
 Polarization charges : Total charges.
 Charge compensation  : None.
 Solution method      : On-the-fly selection.
 Cavity type          : Scaled VdW (van der Waals Surface) (Alpha=1.100).
 Cavity algorithm     : GePol (No added spheres)
                        Default sphere list used, NSphG=   27.
                        Lebedev-Laikov grids with approx.  5.0 points / Ang**2.
                        Smoothing algorithm: York/Karplus (Gamma=1.0000).
                        Polarization charges: spherical gaussians, with
                                              point-specific exponents (IZeta= 3).
                        Self-potential: point-specific (ISelfS= 7).
                        Self-field    : sphere-specific E.n sum rule (ISelfD= 2).
 Solvent              : Water, Eps=  78.355300 Eps(inf)=   1.777849
 ------------------------------------------------------------------------------
 ExpMin= 9.98D-02 ExpMax= 1.94D+04 ExpMxC= 2.91D+03 IAcc=3 IRadAn=         5 AccDes= 0.00D+00
 Harris functional with IExCor=  402 and IRadAn=       5 diagonalized for initial guess.
 HarFok:  IExCor=  402 AccDes= 0.00D+00 IRadAn=         5 IDoV= 1 UseB2=F ITyADJ=14
 ICtDFT=  3500011 ScaDFX=  1.000000  1.000000  1.000000  1.000000
 FoFCou: FMM=F IPFlag=           0 FMFlag=      100000 FMFlg1=           0
         NFxFlg=           0 DoJE=T BraDBF=F KetDBF=T FulRan=T
         wScrn=  0.000000 ICntrl=       500 IOpCl=  0 I1Cent=   200000004 NGrid=           0
         NMat0=    1 NMatS0=      1 NMatT0=    0 NMatD0=    1 NMtDS0=    0 NMtDT0=    0
 Petite list used in FoFCou.
 Initial guess <Sx>= 0.0000 <Sy>= 0.0000 <Sz>= 0.5000 <S**2>= 0.7500 S= 0.5000
 Inv3:  Mode=1 IEnd=    13687488.
 Iteration    1 A*A^-1 deviation from unit magnitude is 7.77D-15 for    135.
 Iteration    1 A*A^-1 deviation from orthogonality  is 4.32D-15 for    596    256.
 Iteration    1 A^-1*A deviation from unit magnitude is 7.33D-15 for    135.
 Iteration    1 A^-1*A deviation from orthogonality  is 5.25D-12 for   1858   1791.
 Error on total polarization charges =  0.00426
 SCF Done:  E(UB3LYP) =  -1424.19723923     A.U. after   20 cycles
            NFock= 20  Conv=0.91D-08     -V/T= 2.0067
 <Sx>= 0.0000 <Sy>= 0.0000 <Sz>= 0.5000 <S**2>= 0.7535 S= 0.5017
 <L.S>= 0.000000000000E+00
 Annihilation of the first spin contaminant:
 S**2 before annihilation     0.7535,   after     0.7500

 **********************************************************************

            Population analysis using the SCF density.

 **********************************************************************

 Orbital symmetries:
 Alpha Orbitals:
       Occupied  (A) (A) (A) (A) (A) (A) (A) (A) (A) (A) (A) (A)
                 (A) (A) (A) (A) (A) (A) (A) (A) (A) (A) (A) (A)
                 (A) (A) (A) (A) (A) (A) (A) (A) (A) (A) (A) (A)
                 (A) (A) (A) (A) (A) (A) (A) (A) (A) (A) (A) (A)
                 (A) (A) (A) (A) (A) (A) (A) (A) (A) (A) (A) (A)
                 (A) (A) (A) (A) (A)
       Virtual   (A) (A) (A) (A) (A) (A) (A) (A) (A) (A) (A) (A)
                 (A) (A) (A) (A) (A) (A) (A) (A) (A) (A) (A) (A)
                 (A) (A) (A) (A) (A) (A) (A) (A) (A) (A) (A) (A)
                 (A) (A) (A) (A) (A) (A) (A) (A) (A) (A) (A) (A)
                 (A) (A) (A) (A) (A) (A) (A) (A) (A) (A) (A) (A)
                 (A) (A) (A) (A) (A) (A) (A) (A) (A) (A) (A) (A)
                 (A) (A) (A) (A) (A) (A) (A) (A) (A) (A) (A) (A)
                 (A) (A) (A) (A) (A) (A) (A) (A) (A) (A) (A) (A)
                 (A) (A) (A) (A) (A) (A) (A) (A) (A) (A) (A) (A)
                 (A) (A) (A) (A) (A) (A) (A) (A) (A) (A) (A) (A)
                 (A) (A) (A) (A) (A) (A) (A) (A) (A) (A) (A) (A)
                 (A) (A) (A) (A) (A) (A) (A) (A) (A) (A) (A) (A)
                 (A) (A) (A) (A) (A) (A) (A) (A) (A) (A) (A) (A)
                 (A) (A) (A) (A) (A) (A) (A) (A) (A) (A) (A) (A)
                 (A) (A) (A) (A) (A) (A) (A) (A) (A) (A) (A) (A)
                 (A) (A) (A) (A) (A) (A) (A) (A) (A) (A) (A) (A)
                 (A) (A) (A) (A) (A) (A) (A) (A) (A) (A) (A) (A)
                 (A) (A) (A) (A) (A) (A) (A) (A) (A) (A) (A) (A)
                 (A) (A)
 Beta  Orbitals:
       Occupied  (A) (A) (A) (A) (A) (A) (A) (A) (A) (A) (A) (A)
                 (A) (A) (A) (A) (A) (A) (A) (A) (A) (A) (A) (A)
                 (A) (A) (A) (A) (A) (A) (A) (A) (A) (A) (A) (A)
                 (A) (A) (A) (A) (A) (A) (A) (A) (A) (A) (A) (A)
                 (A) (A) (A) (A) (A) (A) (A) (A) (A) (A) (A) (A)
                 (A) (A) (A) (A)
       Virtual   (A) (A) (A) (A) (A) (A) (A) (A) (A) (A) (A) (A)
                 (A) (A) (A) (A) (A) (A) (A) (A) (A) (A) (A) (A)
                 (A) (A) (A) (A) (A) (A) (A) (A) (A) (A) (A) (A)
                 (A) (A) (A) (A) (A) (A) (A) (A) (A) (A) (A) (A)
                 (A) (A) (A) (A) (A) (A) (A) (A) (A) (A) (A) (A)
                 (A) (A) (A) (A) (A) (A) (A) (A) (A) (A) (A) (A)
                 (A) (A) (A) (A) (A) (A) (A) (A) (A) (A) (A) (A)
                 (A) (A) (A) (A) (A) (A) (A) (A) (A) (A) (A) (A)
                 (A) (A) (A) (A) (A) (A) (A) (A) (A) (A) (A) (A)
                 (A) (A) (A) (A) (A) (A) (A) (A) (A) (A) (A) (A)
                 (A) (A) (A) (A) (A) (A) (A) (A) (A) (A) (A) (A)
                 (A) (A) (A) (A) (A) (A) (A) (A) (A) (A) (A) (A)
                 (A) (A) (A) (A) (A) (A) (A) (A) (A) (A) (A) (A)
                 (A) (A) (A) (A) (A) (A) (A) (A) (A) (A) (A) (A)
                 (A) (A) (A) (A) (A) (A) (A) (A) (A) (A) (A) (A)
                 (A) (A) (A) (A) (A) (A) (A) (A) (A) (A) (A) (A)
                 (A) (A) (A) (A) (A) (A) (A) (A) (A) (A) (A) (A)
                 (A) (A) (A) (A) (A) (A) (A) (A) (A) (A) (A) (A)
                 (A) (A) (A)
 The electronic state is 2-A.
 Alpha  occ. eigenvalues --  -77.24601 -77.24230 -19.20617 -19.20615 -19.20320
 Alpha  occ. eigenvalues --  -19.20242 -19.19539 -19.13835 -19.13736 -14.50343
 Alpha  occ. eigenvalues --  -10.29757 -10.28635 -10.22868 -10.22713  -6.69485
 Alpha  occ. eigenvalues --   -6.69135  -4.85943  -4.85778  -4.85601  -4.85580
 Alpha  occ. eigenvalues --   -4.85432  -4.85256  -1.10368  -1.09567  -1.06435
 Alpha  occ. eigenvalues --   -1.04966  -1.04731  -1.02070  -0.98713  -0.98376
 Alpha  occ. eigenvalues --   -0.83952  -0.77706  -0.70380  -0.66767  -0.65218
 Alpha  occ. eigenvalues --   -0.61387  -0.59665  -0.58719  -0.56936  -0.56330
 Alpha  occ. eigenvalues --   -0.54909  -0.52142  -0.50238  -0.48232  -0.47806
 Alpha  occ. eigenvalues --   -0.46874  -0.44738  -0.44313  -0.43233  -0.42564
 Alpha  occ. eigenvalues --   -0.41330  -0.40862  -0.40271  -0.39520  -0.39012
 Alpha  occ. eigenvalues --   -0.38123  -0.38022  -0.37603  -0.35776  -0.35487
 Alpha  occ. eigenvalues --   -0.33540  -0.32066  -0.31805  -0.31544  -0.28724
 Alpha virt. eigenvalues --    0.01702   0.02522   0.03764   0.04136   0.04415
 Alpha virt. eigenvalues --    0.06635   0.08230   0.08509   0.09905   0.10158
 Alpha virt. eigenvalues --    0.11008   0.11450   0.11978   0.12777   0.13527
 Alpha virt. eigenvalues --    0.14012   0.14656   0.15748   0.16332   0.17084
 Alpha virt. eigenvalues --    0.18637   0.20073   0.20616   0.23322   0.23882
 Alpha virt. eigenvalues --    0.25381   0.32187   0.33701   0.36727   0.36984
 Alpha virt. eigenvalues --    0.38463   0.38819   0.41202   0.42155   0.46621
 Alpha virt. eigenvalues --    0.48927   0.50685   0.51437   0.53424   0.55055
 Alpha virt. eigenvalues --    0.55753   0.57043   0.58951   0.60830   0.64441
 Alpha virt. eigenvalues --    0.66614   0.68453   0.71766   0.73157   0.73895
 Alpha virt. eigenvalues --    0.74619   0.75348   0.75519   0.76158   0.77775
 Alpha virt. eigenvalues --    0.77880   0.79510   0.80417   0.81777   0.83122
 Alpha virt. eigenvalues --    0.84052   0.84680   0.85591   0.86248   0.87813
 Alpha virt. eigenvalues --    0.88570   0.88726   0.89359   0.90716   0.92387
 Alpha virt. eigenvalues --    0.92631   0.93365   0.95327   0.95357   0.97516
 Alpha virt. eigenvalues --    0.98042   1.00096   1.00540   1.01431   1.03229
 Alpha virt. eigenvalues --    1.03492   1.05729   1.07511   1.08104   1.11418
 Alpha virt. eigenvalues --    1.12650   1.13542   1.15178   1.17252   1.18632
 Alpha virt. eigenvalues --    1.19470   1.20369   1.21593   1.25448   1.26589
 Alpha virt. eigenvalues --    1.27930   1.31399   1.35794   1.38233   1.40429
 Alpha virt. eigenvalues --    1.44380   1.45220   1.46466   1.48946   1.51691
 Alpha virt. eigenvalues --    1.54022   1.55059   1.56025   1.57666   1.57869
 Alpha virt. eigenvalues --    1.58793   1.61763   1.62948   1.65071   1.66248
 Alpha virt. eigenvalues --    1.67420   1.69104   1.69709   1.73583   1.75291
 Alpha virt. eigenvalues --    1.76123   1.79238   1.80242   1.80394   1.82498
 Alpha virt. eigenvalues --    1.83150   1.83753   1.84683   1.85600   1.87994
 Alpha virt. eigenvalues --    1.88784   1.90472   1.92721   1.93684   1.96385
 Alpha virt. eigenvalues --    1.96719   1.99301   2.01661   2.04173   2.05556
 Alpha virt. eigenvalues --    2.08804   2.09580   2.11320   2.14915   2.15816
 Alpha virt. eigenvalues --    2.17218   2.18516   2.19016   2.20760   2.21116
 Alpha virt. eigenvalues --    2.24477   2.28857   2.29873   2.31797   2.32083
 Alpha virt. eigenvalues --    2.33034   2.34753   2.37009   2.38029   2.38842
 Alpha virt. eigenvalues --    2.43332   2.45372   2.47753   2.48326   2.49733
 Alpha virt. eigenvalues --    2.53283   2.58367   2.59626   2.60024   2.60121
 Alpha virt. eigenvalues --    2.60543   2.61633   2.62340   2.63943   2.66236
 Alpha virt. eigenvalues --    2.67825   2.67952   2.68323   2.71577   2.72143
 Alpha virt. eigenvalues --    2.73705   2.76407   2.80042   2.80936   2.81961
 Alpha virt. eigenvalues --    2.84210   2.85298   2.86318   2.88656   2.92730
 Alpha virt. eigenvalues --    2.99094   3.15396   3.20386   3.24214   3.29323
 Alpha virt. eigenvalues --    3.32988   3.33624   3.34705   3.35569   3.36756
 Alpha virt. eigenvalues --    3.40578   3.43969   3.46998   3.49782   3.53390
 Alpha virt. eigenvalues --    3.54682   3.81726   3.86603   3.88933   3.99981
 Alpha virt. eigenvalues --    4.03223   4.04488   4.17152   4.26378   4.32482
 Alpha virt. eigenvalues --    4.38874   4.50293   4.69398
  Beta  occ. eigenvalues --  -77.24599 -77.24230 -19.20612 -19.20609 -19.20318
  Beta  occ. eigenvalues --  -19.20235 -19.19460 -19.13794 -19.13672 -14.48691
  Beta  occ. eigenvalues --  -10.29739 -10.28590 -10.22822 -10.22712  -6.69481
  Beta  occ. eigenvalues --   -6.69135  -4.85942  -4.85778  -4.85592  -4.85581
  Beta  occ. eigenvalues --   -4.85434  -4.85251  -1.10335  -1.09547  -1.06287
  Beta  occ. eigenvalues --   -1.04947  -1.04719  -0.98903  -0.98614  -0.98244
  Beta  occ. eigenvalues --   -0.83584  -0.77154  -0.69945  -0.66691  -0.64844
  Beta  occ. eigenvalues --   -0.61125  -0.58741  -0.58569  -0.56911  -0.54892
  Beta  occ. eigenvalues --   -0.54046  -0.51742  -0.49285  -0.48171  -0.47757
  Beta  occ. eigenvalues --   -0.45593  -0.44589  -0.43196  -0.42940  -0.42432
  Beta  occ. eigenvalues --   -0.41166  -0.40162  -0.39552  -0.38939  -0.38200
  Beta  occ. eigenvalues --   -0.37982  -0.37672  -0.35614  -0.35395  -0.33314
  Beta  occ. eigenvalues --   -0.31957  -0.31664  -0.31411  -0.28141
  Beta virt. eigenvalues --   -0.26033   0.01737   0.02687   0.04118   0.04251
  Beta virt. eigenvalues --    0.04564   0.06762   0.08493   0.08946   0.10110
  Beta virt. eigenvalues --    0.10210   0.11192   0.11879   0.12350   0.12903
  Beta virt. eigenvalues --    0.13771   0.14062   0.14781   0.16026   0.16617
  Beta virt. eigenvalues --    0.17458   0.18702   0.20177   0.20797   0.23464
  Beta virt. eigenvalues --    0.23974   0.25575   0.32201   0.33718   0.36823
  Beta virt. eigenvalues --    0.37021   0.38495   0.38841   0.41274   0.42203
  Beta virt. eigenvalues --    0.46791   0.49076   0.51201   0.51634   0.54184
  Beta virt. eigenvalues --    0.55892   0.56491   0.57202   0.59227   0.63820
  Beta virt. eigenvalues --    0.64648   0.67000   0.68985   0.72502   0.73273
  Beta virt. eigenvalues --    0.74076   0.74666   0.75500   0.75933   0.76297
  Beta virt. eigenvalues --    0.77920   0.78854   0.79614   0.80922   0.81949
  Beta virt. eigenvalues --    0.83434   0.84297   0.85281   0.85815   0.86502
  Beta virt. eigenvalues --    0.88034   0.88728   0.88913   0.89460   0.90944
  Beta virt. eigenvalues --    0.92547   0.92867   0.93479   0.95395   0.95440
  Beta virt. eigenvalues --    0.97591   0.98105   1.00183   1.00653   1.01714
  Beta virt. eigenvalues --    1.03341   1.03541   1.06002   1.07570   1.08245
  Beta virt. eigenvalues --    1.11550   1.12983   1.13600   1.15259   1.17421
  Beta virt. eigenvalues --    1.18748   1.19582   1.20554   1.22697   1.25557
  Beta virt. eigenvalues --    1.27447   1.28595   1.31549   1.36058   1.38553
  Beta virt. eigenvalues --    1.40696   1.44600   1.45284   1.46592   1.49043
  Beta virt. eigenvalues --    1.51890   1.54276   1.55196   1.56346   1.57912
  Beta virt. eigenvalues --    1.58226   1.58901   1.62278   1.63470   1.65366
  Beta virt. eigenvalues --    1.66554   1.67570   1.69148   1.69791   1.73758
  Beta virt. eigenvalues --    1.75699   1.76902   1.79571   1.80411   1.80640
  Beta virt. eigenvalues --    1.82687   1.83268   1.84195   1.84835   1.85706
  Beta virt. eigenvalues --    1.88238   1.88878   1.91012   1.92870   1.93739
  Beta virt. eigenvalues --    1.96770   1.98147   1.99819   2.02334   2.04242
  Beta virt. eigenvalues --    2.05805   2.08969   2.09676   2.11493   2.15110
  Beta virt. eigenvalues --    2.16206   2.18625   2.18800   2.19175   2.20885
  Beta virt. eigenvalues --    2.21384   2.24977   2.28878   2.29923   2.31888
  Beta virt. eigenvalues --    2.32138   2.33899   2.35084   2.37265   2.38174
  Beta virt. eigenvalues --    2.39164   2.43585   2.46035   2.47851   2.49113
  Beta virt. eigenvalues --    2.50206   2.54051   2.58566   2.59673   2.60063
  Beta virt. eigenvalues --    2.60135   2.60565   2.61770   2.62476   2.64099
  Beta virt. eigenvalues --    2.66621   2.68099   2.68205   2.68581   2.71764
  Beta virt. eigenvalues --    2.72427   2.73977   2.76790   2.80098   2.81017
  Beta virt. eigenvalues --    2.82857   2.84437   2.85817   2.86780   2.89233
  Beta virt. eigenvalues --    2.92823   2.99150   3.16290   3.21543   3.24446
  Beta virt. eigenvalues --    3.30021   3.32994   3.33743   3.34803   3.35618
  Beta virt. eigenvalues --    3.36822   3.41331   3.44039   3.47294   3.49944
  Beta virt. eigenvalues --    3.53500   3.54730   3.82655   3.87345   3.90494
  Beta virt. eigenvalues --    4.00005   4.03297   4.04574   4.17188   4.26571
  Beta virt. eigenvalues --    4.32521   4.38990   4.50417   4.69478
     Alpha Molecular Orbital Coefficients:
                           1         2         3         4         5
                           O         O         O         O         O
     Eigenvalues --   -77.24601 -77.24230 -19.20617 -19.20615 -19.20320
   1 1   C  1S         -0.00004  -0.00003  -0.00003  -0.00002  -0.00005
   2        2S         -0.00003   0.00001  -0.00018  -0.00015  -0.00024
   3        2PX        -0.00002   0.00000  -0.00000  -0.00003  -0.00004
   4        2PY        -0.00004   0.00004  -0.00003   0.00003   0.00004
   5        2PZ        -0.00001   0.00000   0.00007  -0.00006   0.00000
   6        3S          0.00090   0.00060   0.00115   0.00126   0.00187
   7        3PX        -0.00033   0.00002  -0.00052  -0.00018   0.00018
   8        3PY        -0.00023   0.00046  -0.00013  -0.00082   0.00027
   9        3PZ         0.00011   0.00005  -0.00007   0.00021   0.00083
  10        4XX        -0.00012  -0.00008   0.00002   0.00003  -0.00001
  11        4YY        -0.00009  -0.00014   0.00001  -0.00002  -0.00001
  12        4ZZ        -0.00008  -0.00006  -0.00004   0.00000  -0.00010
  13        4XY        -0.00003  -0.00000   0.00004  -0.00000  -0.00001
  14        4XZ         0.00002  -0.00000  -0.00001  -0.00002   0.00001
  15        4YZ         0.00002  -0.00003  -0.00001  -0.00002   0.00001
  16 2   O  1S          0.00000   0.00000   0.00004   0.00002   0.00008
  17        2S         -0.00000   0.00002  -0.00018  -0.00005  -0.00027
  18        2PX         0.00001   0.00001   0.00004  -0.00002   0.00001
  19        2PY        -0.00000  -0.00000   0.00006   0.00001  -0.00003
  20        2PZ        -0.00001  -0.00001  -0.00004   0.00004  -0.00003
  21        3S         -0.00013  -0.00020   0.00057   0.00036   0.00118
  22        3PX         0.00002  -0.00006  -0.00014  -0.00017  -0.00015
  23        3PY         0.00007  -0.00009  -0.00025  -0.00001   0.00019
  24        3PZ        -0.00011  -0.00010   0.00016  -0.00021   0.00027
  25        4XX         0.00003  -0.00001  -0.00013   0.00002  -0.00019
  26        4YY        -0.00003   0.00002  -0.00013  -0.00003  -0.00017
  27        4ZZ        -0.00001   0.00000  -0.00014  -0.00007  -0.00016
  28        4XY         0.00002  -0.00002   0.00005   0.00001  -0.00002
  29        4XZ         0.00000  -0.00001  -0.00002   0.00001  -0.00002
  30        4YZ         0.00000  -0.00001  -0.00003   0.00002   0.00002
  31 3   H  1S         -0.00002  -0.00000  -0.00007   0.00003  -0.00004
  32        2S         -0.00018  -0.00015   0.00028  -0.00047   0.00009
  33        3PX         0.00001  -0.00000   0.00003   0.00001  -0.00002
  34        3PY         0.00001  -0.00002  -0.00000   0.00006   0.00001
  35        3PZ        -0.00004  -0.00004   0.00001  -0.00007   0.00002
  36 4   P  1S          0.99625   0.00045   0.00001   0.00001  -0.00000
  37        2S          0.01417  -0.00000  -0.00000  -0.00001   0.00001
  38        2PX         0.00001   0.00001  -0.00002   0.00003   0.00001
  39        2PY        -0.00001   0.00001   0.00006  -0.00003  -0.00002
  40        2PZ        -0.00004   0.00000   0.00003   0.00005   0.00002
  41        3S         -0.02724   0.00004   0.00034   0.00026  -0.00003
  42        3PX        -0.00013  -0.00010   0.00011   0.00001  -0.00003
  43        3PY        -0.00005  -0.00005  -0.00009   0.00016   0.00012
  44        3PZ         0.00006   0.00000  -0.00015  -0.00016  -0.00019
  45        4S          0.00299   0.00019  -0.00331  -0.00319  -0.00050
  46        4PX         0.00015   0.00007  -0.00049   0.00012   0.00017
  47        4PY         0.00019  -0.00005   0.00126  -0.00165  -0.00049
  48        4PZ         0.00001  -0.00011   0.00216   0.00128   0.00034
  49        5XX         0.00943  -0.00004  -0.00002   0.00005  -0.00003
  50        5YY         0.00945  -0.00007   0.00025   0.00002   0.00014
  51        5ZZ         0.00948  -0.00001  -0.00009   0.00008   0.00000
  52        5XY        -0.00004  -0.00005  -0.00006  -0.00005  -0.00001
  53        5XZ         0.00001   0.00001  -0.00005   0.00025  -0.00003
  54        5YZ         0.00002   0.00001   0.00009  -0.00009  -0.00005
  55 5   P  1S         -0.00044   0.99625   0.00000  -0.00000   0.00001
  56        2S         -0.00001   0.01417   0.00003  -0.00007  -0.00003
  57        2PX        -0.00000  -0.00000  -0.00000   0.00000   0.00006
  58        2PY        -0.00001  -0.00000   0.00000  -0.00000  -0.00000
  59        2PZ        -0.00001  -0.00004  -0.00000   0.00000   0.00003
  60        3S          0.00013  -0.02726   0.00015  -0.00024   0.00020
  61        3PX         0.00004  -0.00004   0.00001   0.00002  -0.00013
  62        3PY         0.00009   0.00014  -0.00005   0.00008  -0.00009
  63        3PZ         0.00005   0.00007   0.00001   0.00003  -0.00013
  64        4S         -0.00023   0.00311  -0.00071   0.00166  -0.00285
  65        4PX         0.00007   0.00016   0.00042  -0.00050   0.00153
  66        4PY         0.00010  -0.00023   0.00033  -0.00068   0.00079
  67        4PZ        -0.00010   0.00002  -0.00004  -0.00017   0.00120
  68        5XX        -0.00004   0.00947   0.00000  -0.00005   0.00020
  69        5YY        -0.00010   0.00941   0.00000  -0.00006  -0.00004
  70        5ZZ        -0.00004   0.00950  -0.00000  -0.00003  -0.00007
  71        5XY        -0.00003   0.00001  -0.00001   0.00003  -0.00007
  72        5XZ        -0.00001   0.00000  -0.00002   0.00002   0.00012
  73        5YZ        -0.00000  -0.00003  -0.00001   0.00002  -0.00003
  74 6   O  1S         -0.00001   0.00002   0.04252   0.99177   0.00068
  75        2S         -0.00005   0.00006   0.00088   0.02576  -0.00010
  76        2PX        -0.00004   0.00002  -0.00004  -0.00015  -0.00001
  77        2PY         0.00005   0.00001  -0.00004  -0.00085   0.00003
  78        2PZ        -0.00007   0.00001   0.00004   0.00032  -0.00000
  79        3S          0.00072  -0.00026   0.00200   0.01267   0.00058
  80        3PX         0.00009  -0.00014   0.00049   0.00054   0.00004
  81        3PY        -0.00025  -0.00006  -0.00007   0.00025  -0.00008
  82        3PZ         0.00023  -0.00008   0.00010   0.00028   0.00006
  83        4XX        -0.00011   0.00005  -0.00046  -0.00825  -0.00001
  84        4YY         0.00000   0.00006  -0.00058  -0.00826   0.00000
  85        4ZZ        -0.00016   0.00005  -0.00048  -0.00825  -0.00004
  86        4XY         0.00008   0.00001   0.00000  -0.00001   0.00005
  87        4XZ        -0.00013  -0.00001  -0.00001  -0.00004  -0.00001
  88        4YZ         0.00006   0.00001   0.00001   0.00002   0.00002
  89 7   H  1S         -0.00010  -0.00004   0.00004   0.00043  -0.00011
  90        2S         -0.00021  -0.00005   0.00033  -0.00094   0.00002
  91        3PX        -0.00001  -0.00001   0.00002  -0.00005  -0.00004
  92        3PY        -0.00001  -0.00002  -0.00001  -0.00000  -0.00003
  93        3PZ        -0.00000  -0.00000   0.00003  -0.00004  -0.00002
  94 8   O  1S         -0.00001   0.00000   0.99177  -0.04259  -0.00011
  95        2S         -0.00006   0.00001   0.02571  -0.00116  -0.00000
  96        2PX         0.00002  -0.00000   0.00007  -0.00002  -0.00001
  97        2PY        -0.00007  -0.00000   0.00016   0.00002  -0.00000
  98        2PZ        -0.00005  -0.00000   0.00094  -0.00002   0.00001
  99        3S          0.00081  -0.00009   0.01293  -0.00009  -0.00000
 100        3PX        -0.00007   0.00001  -0.00007   0.00005   0.00002
 101        3PY         0.00023  -0.00001   0.00068   0.00007  -0.00000
 102        3PZ         0.00027   0.00002  -0.00040  -0.00013  -0.00007
 103        4XX        -0.00004   0.00001  -0.00824   0.00028  -0.00000
 104        4YY        -0.00025   0.00001  -0.00828   0.00029  -0.00001
 105        4ZZ         0.00002   0.00001  -0.00829   0.00027  -0.00001
 106        4XY         0.00003   0.00000   0.00002   0.00006   0.00001
 107        4XZ         0.00002  -0.00000  -0.00001  -0.00004  -0.00000
 108        4YZ        -0.00009   0.00001  -0.00002   0.00003  -0.00001
 109 9   H  1S         -0.00012  -0.00000   0.00044   0.00006   0.00003
 110        2S         -0.00022  -0.00001  -0.00091  -0.00026  -0.00013
 111        3PX         0.00001  -0.00000   0.00001   0.00001  -0.00000
 112        3PY        -0.00001  -0.00000  -0.00007  -0.00001  -0.00001
 113        3PZ         0.00001  -0.00000   0.00002  -0.00004  -0.00000
 114 10  O  1S          0.00000  -0.00001   0.00006  -0.00067   0.99268
 115        2S          0.00003  -0.00004  -0.00010   0.00006   0.02575
 116        2PX        -0.00001  -0.00008  -0.00001  -0.00000   0.00048
 117        2PY        -0.00001  -0.00001   0.00000   0.00000   0.00078
 118        2PZ        -0.00001  -0.00004  -0.00001  -0.00002   0.00025
 119        3S         -0.00009   0.00073   0.00050  -0.00056   0.01282
 120        3PX         0.00003   0.00029   0.00009  -0.00012   0.00042
 121        3PY         0.00006   0.00015  -0.00007  -0.00002  -0.00070
 122        3PZ         0.00003   0.00016   0.00006   0.00000   0.00005
 123        4XX         0.00002  -0.00023  -0.00006   0.00008  -0.00830
 124        4YY        -0.00002   0.00003  -0.00006   0.00013  -0.00833
 125        4ZZ         0.00002  -0.00005  -0.00006   0.00006  -0.00827
 126        4XY        -0.00000   0.00007  -0.00001   0.00001   0.00001
 127        4XZ         0.00001  -0.00009   0.00001   0.00000  -0.00003
 128        4YZ        -0.00000   0.00003   0.00000  -0.00001  -0.00000
 129 11  H  1S          0.00001  -0.00011  -0.00002   0.00000   0.00049
 130        2S          0.00000  -0.00019   0.00004  -0.00004  -0.00085
 131        3PX        -0.00000  -0.00000  -0.00000  -0.00001  -0.00004
 132        3PY        -0.00001   0.00001  -0.00000   0.00003   0.00001
 133        3PZ        -0.00000  -0.00000  -0.00000  -0.00001  -0.00002
 134 12  O  1S          0.00000  -0.00000   0.00001  -0.00012   0.00185
 135        2S         -0.00000  -0.00002  -0.00000   0.00004  -0.00009
 136        2PX         0.00000   0.00003   0.00000  -0.00000  -0.00001
 137        2PY         0.00000   0.00002   0.00001  -0.00001   0.00001
 138        2PZ        -0.00000  -0.00007   0.00001  -0.00001   0.00004
 139        3S         -0.00001   0.00062   0.00000  -0.00025   0.00088
 140        3PX         0.00000  -0.00006  -0.00001   0.00006  -0.00021
 141        3PY        -0.00002  -0.00005  -0.00004   0.00009  -0.00020
 142        3PZ         0.00001   0.00033  -0.00003   0.00003  -0.00014
 143        4XX         0.00000  -0.00004   0.00000   0.00003  -0.00022
 144        4YY         0.00000  -0.00007   0.00000   0.00003  -0.00008
 145        4ZZ         0.00000  -0.00008  -0.00001   0.00004  -0.00013
 146        4XY         0.00000  -0.00007   0.00000  -0.00000   0.00001
 147        4XZ        -0.00000   0.00014   0.00000  -0.00000  -0.00002
 148        4YZ        -0.00000   0.00011   0.00000   0.00000   0.00000
 149 13  H  1S          0.00000  -0.00011   0.00002  -0.00002   0.00009
 150        2S         -0.00002  -0.00024  -0.00009   0.00008  -0.00019
 151        3PX         0.00000   0.00002   0.00000   0.00000  -0.00002
 152        3PY         0.00000   0.00000   0.00001  -0.00000  -0.00001
 153        3PZ        -0.00000   0.00001  -0.00000   0.00001  -0.00005
 154 14  O  1S          0.00000   0.00002  -0.00001   0.00001  -0.00003
 155        2S          0.00000  -0.00000  -0.00004   0.00010   0.00004
 156        2PX        -0.00001   0.00004   0.00002  -0.00003   0.00005
 157        2PY        -0.00002   0.00001   0.00000  -0.00003   0.00004
 158        2PZ        -0.00001   0.00018   0.00000  -0.00001  -0.00003
 159        3S          0.00001   0.00026   0.00020  -0.00052  -0.00019
 160        3PX         0.00002  -0.00010  -0.00009   0.00014  -0.00033
 161        3PY         0.00003   0.00002  -0.00004   0.00014  -0.00017
 162        3PZ         0.00002  -0.00035  -0.00004   0.00012  -0.00009
 163        4XX         0.00002   0.00009  -0.00002   0.00007   0.00005
 164        4YY         0.00001   0.00009  -0.00003   0.00008   0.00007
 165        4ZZ         0.00001  -0.00014  -0.00002   0.00007   0.00009
 166        4XY        -0.00001  -0.00001  -0.00001  -0.00000   0.00003
 167        4XZ        -0.00001  -0.00005   0.00001  -0.00001   0.00005
 168        4YZ        -0.00000  -0.00006   0.00000  -0.00001   0.00001
 169 15  O  1S          0.00002   0.00001  -0.00002  -0.00004  -0.00002
 170        2S         -0.00003   0.00005   0.00013  -0.00010  -0.00014
 171        2PX        -0.00005   0.00002   0.00000   0.00002   0.00000
 172        2PY         0.00004   0.00002   0.00002  -0.00007  -0.00007
 173        2PZ         0.00018  -0.00000  -0.00000   0.00001   0.00004
 174        3S          0.00038  -0.00019  -0.00066   0.00056   0.00058
 175        3PX         0.00007  -0.00007   0.00002  -0.00006   0.00002
 176        3PY        -0.00012  -0.00006  -0.00018   0.00031   0.00025
 177        3PZ        -0.00036   0.00005  -0.00014  -0.00035  -0.00024
 178        4XX         0.00005   0.00004   0.00012  -0.00006  -0.00013
 179        4YY         0.00008   0.00003   0.00009  -0.00004  -0.00011
 180        4ZZ        -0.00015   0.00004   0.00015   0.00003  -0.00008
 181        4XY         0.00001  -0.00002   0.00000   0.00002   0.00001
 182        4XZ         0.00008   0.00001  -0.00001  -0.00000  -0.00002
 183        4YZ        -0.00004   0.00001   0.00003  -0.00002  -0.00002
 184 16  C  1S         -0.00001  -0.00002  -0.00001   0.00002   0.00002
 185        2S         -0.00003  -0.00005  -0.00007   0.00009   0.00011
 186        2PX         0.00004   0.00002  -0.00003  -0.00000  -0.00001
 187        2PY        -0.00000  -0.00004  -0.00001   0.00001   0.00000
 188        2PZ        -0.00000   0.00001  -0.00003   0.00003   0.00002
 189        3S         -0.00004   0.00033   0.00034  -0.00067  -0.00082
 190        3PX         0.00002   0.00017  -0.00004   0.00040   0.00050
 191        3PY        -0.00014  -0.00003  -0.00004  -0.00019  -0.00037
 192        3PZ         0.00014  -0.00006   0.00011   0.00002  -0.00010
 193        4XX        -0.00005  -0.00003   0.00002  -0.00002   0.00000
 194        4YY        -0.00002  -0.00005   0.00002   0.00003   0.00003
 195        4ZZ        -0.00003  -0.00004  -0.00000   0.00001   0.00003
 196        4XY         0.00001   0.00002   0.00002   0.00001   0.00003
 197        4XZ        -0.00001   0.00000  -0.00000  -0.00002  -0.00000
 198        4YZ        -0.00001   0.00001   0.00001  -0.00000   0.00001
 199 17  C  1S         -0.00001   0.00001   0.00000  -0.00000  -0.00001
 200        2S         -0.00003   0.00006   0.00001  -0.00002  -0.00004
 201        2PX         0.00002  -0.00001   0.00001   0.00000  -0.00001
 202        2PY         0.00000   0.00000  -0.00000   0.00000  -0.00001
 203        2PZ        -0.00000  -0.00001   0.00001  -0.00000  -0.00000
 204        3S          0.00018  -0.00022  -0.00005   0.00007   0.00025
 205        3PX        -0.00019   0.00030  -0.00010  -0.00005   0.00002
 206        3PY        -0.00002   0.00000   0.00005   0.00004   0.00018
 207        3PZ        -0.00002   0.00006  -0.00010   0.00003   0.00013
 208        4XX        -0.00000  -0.00002  -0.00001   0.00000  -0.00001
 209        4YY        -0.00002   0.00001  -0.00000  -0.00001  -0.00000
 210        4ZZ        -0.00002   0.00001  -0.00000  -0.00000  -0.00001
 211        4XY         0.00001   0.00001  -0.00000  -0.00001  -0.00001
 212        4XZ        -0.00000   0.00000   0.00001  -0.00000   0.00000
 213        4YZ         0.00000   0.00000   0.00000   0.00000   0.00001
 214 18  H  1S          0.00000  -0.00002   0.00004  -0.00000  -0.00000
 215        2S         -0.00022  -0.00002  -0.00006   0.00001  -0.00004
 216        3PX         0.00004  -0.00001  -0.00001  -0.00001  -0.00003
 217        3PY        -0.00001   0.00001  -0.00002  -0.00000   0.00000
 218        3PZ        -0.00001   0.00001  -0.00002   0.00000  -0.00001
 219 19  H  1S         -0.00001   0.00002  -0.00004   0.00006   0.00008
 220        2S         -0.00022  -0.00019  -0.00005  -0.00003   0.00005
 221        3PX         0.00004   0.00001  -0.00001  -0.00001  -0.00001
 222        3PY         0.00001  -0.00004  -0.00000   0.00000   0.00001
 223        3PZ         0.00001   0.00001  -0.00000   0.00000   0.00000
 224 20  C  1S          0.00000   0.00000  -0.00000   0.00000   0.00000
 225        2S          0.00001   0.00001  -0.00001   0.00001   0.00002
 226        2PX        -0.00000   0.00000  -0.00001  -0.00001  -0.00001
 227        2PY         0.00000  -0.00000  -0.00000  -0.00000  -0.00001
 228        2PZ         0.00000   0.00000  -0.00000   0.00000   0.00000
 229        3S         -0.00006  -0.00011   0.00011   0.00000  -0.00003
 230        3PX        -0.00001   0.00006   0.00000   0.00012   0.00016
 231        3PY         0.00004  -0.00001   0.00008   0.00004   0.00003
 232        3PZ        -0.00001  -0.00004   0.00001  -0.00004  -0.00005
 233        4XX        -0.00000   0.00001   0.00001   0.00000   0.00001
 234        4YY         0.00001   0.00000   0.00000   0.00001   0.00000
 235        4ZZ         0.00000   0.00000  -0.00000   0.00001   0.00001
 236        4XY        -0.00001   0.00000  -0.00000   0.00000   0.00001
 237        4XZ         0.00000   0.00000  -0.00000  -0.00000   0.00000
 238        4YZ        -0.00000   0.00000  -0.00000  -0.00000  -0.00000
 239 21  H  1S         -0.00001   0.00004  -0.00001  -0.00000  -0.00001
 240        2S         -0.00001  -0.00002  -0.00003   0.00001   0.00006
 241        3PX         0.00001  -0.00001   0.00000  -0.00000  -0.00001
 242        3PY        -0.00000  -0.00000  -0.00000  -0.00000  -0.00001
 243        3PZ         0.00000  -0.00001  -0.00000   0.00000   0.00000
 244 22  H  1S         -0.00001   0.00001   0.00000  -0.00000  -0.00000
 245        2S          0.00004  -0.00013   0.00001  -0.00006  -0.00032
 246        3PX         0.00001   0.00001   0.00001   0.00001   0.00001
 247        3PY        -0.00001  -0.00000  -0.00001   0.00000   0.00001
 248        3PZ        -0.00000  -0.00001   0.00001   0.00000   0.00000
 249 23  H  1S          0.00000   0.00000  -0.00000   0.00001   0.00001
 250        2S          0.00003   0.00005  -0.00001   0.00002   0.00002
 251        3PX         0.00000  -0.00000  -0.00000  -0.00001  -0.00001
 252        3PY        -0.00000   0.00000  -0.00000  -0.00000  -0.00000
 253        3PZ        -0.00000  -0.00000   0.00000  -0.00000   0.00000
 254 24  H  1S         -0.00000   0.00000  -0.00000   0.00001   0.00001
 255        2S          0.00005  -0.00000   0.00005   0.00000   0.00001
 256        3PX        -0.00000  -0.00000  -0.00000  -0.00001  -0.00001
 257        3PY         0.00000  -0.00000   0.00000  -0.00000  -0.00000
 258        3PZ         0.00000   0.00000   0.00000   0.00000   0.00000
 259 25  N  1S         -0.00000   0.00000   0.00000   0.00000   0.00001
 260        2S         -0.00001   0.00001   0.00001   0.00001   0.00002
 261        2PX         0.00000  -0.00000   0.00000   0.00000  -0.00000
 262        2PY        -0.00000   0.00000  -0.00000  -0.00000  -0.00000
 263        2PZ         0.00000   0.00000   0.00000   0.00000  -0.00000
 264        3S          0.00005  -0.00007  -0.00006  -0.00011  -0.00017
 265        3PX        -0.00004   0.00004   0.00002   0.00003   0.00005
 266        3PY         0.00001  -0.00001   0.00001   0.00003   0.00002
 267        3PZ         0.00001  -0.00000  -0.00001  -0.00002  -0.00002
 268        4XX        -0.00000   0.00000   0.00000   0.00000   0.00001
 269        4YY        -0.00001   0.00001   0.00000   0.00001   0.00001
 270        4ZZ        -0.00001   0.00001   0.00000   0.00001   0.00002
 271        4XY         0.00000  -0.00000  -0.00000  -0.00000  -0.00000
 272        4XZ        -0.00000  -0.00000   0.00000   0.00000   0.00000
 273        4YZ         0.00000  -0.00000   0.00000   0.00000   0.00000
 274 26  H  1S         -0.00001   0.00000   0.00000   0.00000  -0.00000
 275        2S         -0.00001   0.00001  -0.00000   0.00000   0.00003
 276        3PX         0.00000  -0.00000   0.00000   0.00000  -0.00000
 277        3PY        -0.00000   0.00000   0.00000  -0.00000  -0.00000
 278        3PZ         0.00000  -0.00000   0.00000   0.00000  -0.00000
 279 27  H  1S          0.00001  -0.00000   0.00000   0.00001   0.00001
 280        2S          0.00001  -0.00002   0.00001  -0.00000  -0.00001
 281        3PX        -0.00000   0.00000  -0.00000   0.00000   0.00000
 282        3PY         0.00000  -0.00000  -0.00000  -0.00000  -0.00000
 283        3PZ        -0.00000   0.00000   0.00000   0.00000   0.00000
                           6         7         8         9        10
                           O         O         O         O         O
     Eigenvalues --   -19.20242 -19.19539 -19.13835 -19.13736 -14.50343
   1 1   C  1S         -0.00002  -0.00002  -0.00000  -0.00002  -0.00000
   2        2S         -0.00015   0.00012  -0.00005  -0.00013  -0.00000
   3        2PX         0.00004   0.00006  -0.00001  -0.00002   0.00001
   4        2PY         0.00001  -0.00004  -0.00004   0.00001   0.00000
   5        2PZ         0.00003  -0.00032  -0.00006  -0.00006  -0.00000
   6        3S          0.00090  -0.00089  -0.00001   0.00067   0.00006
   7        3PX        -0.00052  -0.00039  -0.00048   0.00032  -0.00000
   8        3PY         0.00088   0.00014   0.00038   0.00026  -0.00002
   9        3PZ        -0.00039   0.00104   0.00068   0.00064   0.00007
  10        4XX        -0.00004   0.00002   0.00004  -0.00003   0.00000
  11        4YY         0.00006   0.00001   0.00000   0.00002   0.00000
  12        4ZZ        -0.00001   0.00021  -0.00001  -0.00001  -0.00000
  13        4XY         0.00001   0.00000   0.00003  -0.00000   0.00000
  14        4XZ        -0.00002  -0.00003  -0.00003   0.00000   0.00000
  15        4YZ         0.00001   0.00002   0.00000   0.00003  -0.00000
  16 2   O  1S         -0.00019   0.99274   0.00001   0.00001  -0.00000
  17        2S         -0.00001   0.02588  -0.00000   0.00002  -0.00001
  18        2PX         0.00000  -0.00089  -0.00003   0.00000  -0.00000
  19        2PY        -0.00002   0.00032  -0.00002   0.00004  -0.00000
  20        2PZ        -0.00001   0.00042   0.00001   0.00002  -0.00000
  21        3S         -0.00021   0.01212   0.00025   0.00007   0.00007
  22        3PX         0.00015  -0.00001   0.00013  -0.00009   0.00000
  23        3PY         0.00011   0.00000   0.00006  -0.00015   0.00001
  24        3PZ        -0.00000   0.00047   0.00009  -0.00005   0.00002
  25        4XX        -0.00002  -0.00802   0.00001   0.00004  -0.00001
  26        4YY         0.00007  -0.00809   0.00002   0.00002  -0.00001
  27        4ZZ        -0.00001  -0.00816   0.00004   0.00003  -0.00001
  28        4XY         0.00000  -0.00002  -0.00001   0.00000   0.00000
  29        4XZ         0.00001   0.00005   0.00002  -0.00001   0.00000
  30        4YZ         0.00001  -0.00002  -0.00000  -0.00002   0.00000
  31 3   H  1S         -0.00004   0.00030   0.00005   0.00003  -0.00000
  32        2S          0.00037  -0.00125  -0.00016  -0.00024   0.00000
  33        3PX         0.00003  -0.00014  -0.00001  -0.00002   0.00000
  34        3PY         0.00002   0.00005   0.00000   0.00001  -0.00000
  35        3PZ         0.00002  -0.00012  -0.00001  -0.00001   0.00000
  36 4   P  1S          0.00000   0.00000   0.00002  -0.00000  -0.00000
  37        2S          0.00001   0.00004  -0.00007  -0.00004   0.00000
  38        2PX        -0.00000  -0.00000  -0.00002   0.00001   0.00000
  39        2PY        -0.00000  -0.00000  -0.00000   0.00000   0.00000
  40        2PZ        -0.00000   0.00000   0.00001   0.00001   0.00000
  41        3S          0.00004   0.00027   0.00088  -0.00014   0.00000
  42        3PX         0.00002   0.00007   0.00012  -0.00008  -0.00001
  43        3PY         0.00001   0.00006   0.00006  -0.00005  -0.00000
  44        3PZ         0.00001  -0.00005   0.00011  -0.00008  -0.00000
  45        4S         -0.00017  -0.00098  -0.00315   0.00064  -0.00004
  46        4PX        -0.00003  -0.00042  -0.00003   0.00010  -0.00001
  47        4PY        -0.00014   0.00011  -0.00066   0.00032  -0.00001
  48        4PZ        -0.00009   0.00041  -0.00235  -0.00006  -0.00000
  49        5XX         0.00002   0.00003  -0.00025  -0.00005  -0.00000
  50        5YY        -0.00000  -0.00003  -0.00028  -0.00005  -0.00000
  51        5ZZ        -0.00001  -0.00004  -0.00017  -0.00002  -0.00000
  52        5XY        -0.00002  -0.00001  -0.00001  -0.00000  -0.00000
  53        5XZ         0.00003  -0.00000  -0.00004  -0.00002  -0.00000
  54        5YZ         0.00002  -0.00001   0.00002  -0.00002  -0.00000
  55 5   P  1S          0.00001   0.00000  -0.00000   0.00002   0.00000
  56        2S          0.00002   0.00003  -0.00003  -0.00007   0.00000
  57        2PX        -0.00004  -0.00002  -0.00000  -0.00001  -0.00000
  58        2PY        -0.00002   0.00000  -0.00000   0.00002   0.00000
  59        2PZ         0.00005   0.00000  -0.00000   0.00001   0.00000
  60        3S          0.00046   0.00022  -0.00010   0.00094   0.00001
  61        3PX         0.00011   0.00014   0.00004   0.00008   0.00001
  62        3PY        -0.00006  -0.00007   0.00003  -0.00010  -0.00000
  63        3PZ        -0.00016  -0.00005   0.00001   0.00011  -0.00001
  64        4S         -0.00385  -0.00070  -0.00013  -0.00349  -0.00006
  65        4PX        -0.00031  -0.00003  -0.00015  -0.00088  -0.00005
  66        4PY        -0.00006   0.00027   0.00009   0.00036   0.00002
  67        4PZ         0.00236   0.00025  -0.00019  -0.00235  -0.00002
  68        5XX         0.00003   0.00001  -0.00001  -0.00026   0.00000
  69        5YY         0.00005   0.00000  -0.00002  -0.00029   0.00000
  70        5ZZ         0.00003  -0.00002  -0.00003  -0.00019   0.00000
  71        5XY         0.00008  -0.00002   0.00002  -0.00002  -0.00000
  72        5XZ        -0.00021  -0.00004  -0.00004   0.00003   0.00000
  73        5YZ        -0.00013   0.00000  -0.00003   0.00001   0.00000
  74 6   O  1S          0.00013  -0.00006   0.00002   0.00003  -0.00000
  75        2S          0.00003  -0.00011  -0.00001   0.00007  -0.00000
  76        2PX         0.00002  -0.00001   0.00003   0.00000  -0.00000
  77        2PY        -0.00001  -0.00001  -0.00003   0.00001  -0.00000
  78        2PZ        -0.00001   0.00003  -0.00004   0.00002  -0.00000
  79        3S         -0.00007   0.00051   0.00001  -0.00036   0.00001
  80        3PX        -0.00009   0.00021  -0.00010  -0.00006   0.00000
  81        3PY         0.00003   0.00006   0.00015  -0.00006   0.00000
  82        3PZ         0.00004  -0.00009   0.00034  -0.00012   0.00000
  83        4XX         0.00001  -0.00006  -0.00000   0.00006  -0.00000
  84        4YY         0.00004  -0.00006  -0.00000   0.00006  -0.00000
  85        4ZZ         0.00002  -0.00008   0.00004   0.00005  -0.00000
  86        4XY         0.00001  -0.00000   0.00002   0.00001  -0.00000
  87        4XZ         0.00001  -0.00001   0.00003  -0.00001  -0.00000
  88        4YZ         0.00001  -0.00001  -0.00001  -0.00000   0.00000
  89 7   H  1S         -0.00001   0.00000   0.00001  -0.00002   0.00000
  90        2S         -0.00003   0.00008  -0.00005  -0.00002  -0.00000
  91        3PX        -0.00000   0.00001   0.00001  -0.00001  -0.00000
  92        3PY        -0.00001   0.00001   0.00000  -0.00001   0.00000
  93        3PZ        -0.00001   0.00002  -0.00001   0.00001  -0.00000
  94 8   O  1S         -0.00002  -0.00012   0.00006  -0.00000  -0.00000
  95        2S         -0.00001  -0.00017   0.00002  -0.00000  -0.00000
  96        2PX        -0.00000  -0.00001   0.00000   0.00000  -0.00000
  97        2PY        -0.00001  -0.00003  -0.00000   0.00000  -0.00000
  98        2PZ        -0.00000   0.00001  -0.00005  -0.00000  -0.00000
  99        3S          0.00002   0.00076  -0.00009   0.00001   0.00001
 100        3PX         0.00002   0.00005  -0.00002  -0.00002   0.00000
 101        3PY         0.00004   0.00024   0.00013  -0.00001   0.00000
 102        3PZ         0.00000  -0.00007   0.00036   0.00001   0.00000
 103        4XX        -0.00001  -0.00012   0.00006  -0.00001  -0.00000
 104        4YY        -0.00001  -0.00010   0.00008   0.00000  -0.00000
 105        4ZZ        -0.00002  -0.00013   0.00004  -0.00001  -0.00000
 106        4XY         0.00000   0.00002  -0.00000   0.00000   0.00000
 107        4XZ        -0.00000  -0.00000   0.00001  -0.00000  -0.00000
 108        4YZ         0.00000  -0.00001   0.00002   0.00001   0.00000
 109 9   H  1S          0.00001   0.00000  -0.00009   0.00000   0.00000
 110        2S          0.00000   0.00008   0.00030   0.00001   0.00000
 111        3PX        -0.00000  -0.00001   0.00000  -0.00000   0.00000
 112        3PY         0.00000   0.00001   0.00003   0.00000   0.00000
 113        3PZ        -0.00001  -0.00002   0.00004  -0.00000   0.00000
 114 10  O  1S         -0.00195  -0.00018  -0.00004   0.00006   0.00000
 115        2S         -0.00030  -0.00014  -0.00006   0.00003   0.00000
 116        2PX        -0.00001  -0.00002   0.00002   0.00002   0.00000
 117        2PY         0.00003   0.00002   0.00003  -0.00001   0.00000
 118        2PZ         0.00004   0.00002  -0.00003  -0.00007   0.00000
 119        3S          0.00149   0.00060   0.00022  -0.00020  -0.00001
 120        3PX         0.00041   0.00016  -0.00003   0.00003  -0.00000
 121        3PY        -0.00035  -0.00020  -0.00017   0.00002  -0.00000
 122        3PZ        -0.00016  -0.00008   0.00014   0.00041  -0.00000
 123        4XX        -0.00016  -0.00009  -0.00005   0.00007   0.00000
 124        4YY        -0.00020  -0.00012  -0.00009   0.00006   0.00000
 125        4ZZ        -0.00013  -0.00011  -0.00006   0.00005   0.00000
 126        4XY        -0.00005  -0.00002   0.00001  -0.00001  -0.00000
 127        4XZ         0.00002  -0.00001   0.00001   0.00004  -0.00000
 128        4YZ         0.00002   0.00001  -0.00003  -0.00002   0.00000
 129 11  H  1S          0.00006   0.00003   0.00006  -0.00003   0.00000
 130        2S          0.00034   0.00003  -0.00001   0.00003  -0.00001
 131        3PX         0.00006  -0.00000   0.00001   0.00001  -0.00000
 132        3PY        -0.00004  -0.00003  -0.00003   0.00001   0.00000
 133        3PZ         0.00001   0.00001  -0.00001  -0.00000  -0.00000
 134 12  O  1S          0.99267   0.00019   0.00000   0.00005  -0.00000
 135        2S          0.02570  -0.00002  -0.00000  -0.00003  -0.00000
 136        2PX         0.00038  -0.00000  -0.00000  -0.00002   0.00000
 137        2PY        -0.00004  -0.00001   0.00001   0.00000   0.00000
 138        2PZ         0.00087  -0.00001  -0.00001  -0.00005  -0.00000
 139        3S          0.01310   0.00017  -0.00001   0.00015   0.00002
 140        3PX        -0.00061   0.00004   0.00002   0.00011  -0.00000
 141        3PY        -0.00046  -0.00001  -0.00002  -0.00007  -0.00001
 142        3PZ         0.00002   0.00003   0.00003   0.00042   0.00000
 143        4XX        -0.00828   0.00004  -0.00001   0.00003  -0.00000
 144        4YY        -0.00827   0.00001  -0.00000   0.00003  -0.00000
 145        4ZZ        -0.00831   0.00000  -0.00000   0.00002  -0.00000
 146        4XY        -0.00001   0.00001  -0.00000   0.00001   0.00000
 147        4XZ         0.00002   0.00004   0.00000  -0.00001  -0.00000
 148        4YZ         0.00002   0.00001   0.00000  -0.00003   0.00000
 149 13  H  1S          0.00041  -0.00006  -0.00001  -0.00009   0.00000
 150        2S         -0.00094   0.00000   0.00003   0.00021   0.00001
 151        3PX         0.00008   0.00003  -0.00000   0.00001  -0.00000
 152        3PY         0.00005   0.00001   0.00000  -0.00000  -0.00000
 153        3PZ        -0.00000   0.00002   0.00000   0.00005   0.00000
 154 14  O  1S         -0.00003   0.00000   0.00055   0.99270  -0.00000
 155        2S          0.00005   0.00001  -0.00009   0.02554  -0.00001
 156        2PX        -0.00003  -0.00001   0.00001  -0.00017  -0.00000
 157        2PY        -0.00002   0.00000   0.00002  -0.00010   0.00000
 158        2PZ         0.00001  -0.00001   0.00000  -0.00083   0.00000
 159        3S         -0.00027  -0.00001   0.00050   0.01321   0.00006
 160        3PX         0.00012   0.00001  -0.00004  -0.00004   0.00001
 161        3PY         0.00007  -0.00003  -0.00009  -0.00023  -0.00001
 162        3PZ        -0.00029  -0.00002  -0.00007  -0.00059  -0.00001
 163        4XX         0.00005   0.00002  -0.00008  -0.00825  -0.00001
 164        4YY         0.00005   0.00001  -0.00008  -0.00825  -0.00001
 165        4ZZ         0.00011   0.00002  -0.00007  -0.00820  -0.00001
 166        4XY        -0.00003   0.00000   0.00002   0.00000   0.00000
 167        4XZ         0.00001   0.00000   0.00000   0.00000  -0.00000
 168        4YZ         0.00001  -0.00000   0.00000   0.00002   0.00000
 169 15  O  1S         -0.00001   0.00000   0.99271  -0.00059  -0.00000
 170        2S         -0.00003   0.00002   0.02557  -0.00006  -0.00000
 171        2PX         0.00000  -0.00001   0.00022  -0.00002  -0.00000
 172        2PY         0.00001   0.00000  -0.00018  -0.00003  -0.00000
 173        2PZ         0.00001  -0.00000  -0.00081  -0.00000   0.00000
 174        3S          0.00015  -0.00008   0.01301   0.00011   0.00002
 175        3PX        -0.00000   0.00006   0.00031   0.00008   0.00000
 176        3PY        -0.00002  -0.00002  -0.00003   0.00008   0.00000
 177        3PZ        -0.00006  -0.00002  -0.00051   0.00001  -0.00000
 178        4XX        -0.00002   0.00002  -0.00822  -0.00004  -0.00000
 179        4YY        -0.00002   0.00002  -0.00822  -0.00003  -0.00000
 180        4ZZ        -0.00001   0.00003  -0.00818  -0.00004  -0.00000
 181        4XY        -0.00001  -0.00001  -0.00001   0.00003  -0.00000
 182        4XZ        -0.00000  -0.00001  -0.00003  -0.00002  -0.00000
 183        4YZ        -0.00000   0.00001   0.00000   0.00000  -0.00000
 184 16  C  1S         -0.00003   0.00001  -0.00002  -0.00001   0.00000
 185        2S         -0.00014   0.00011  -0.00005  -0.00004   0.00001
 186        2PX         0.00001   0.00000   0.00009  -0.00001  -0.00001
 187        2PY        -0.00002   0.00001   0.00003  -0.00006   0.00000
 188        2PZ        -0.00001  -0.00009  -0.00002   0.00001   0.00000
 189        3S          0.00102   0.00005   0.00006  -0.00023  -0.00020
 190        3PX        -0.00037  -0.00020  -0.00091   0.00023  -0.00000
 191        3PY         0.00029  -0.00002  -0.00034   0.00022  -0.00006
 192        3PZ        -0.00001   0.00047  -0.00019   0.00007   0.00001
 193        4XX        -0.00003   0.00001  -0.00004  -0.00004   0.00000
 194        4YY        -0.00004   0.00003  -0.00003  -0.00003   0.00000
 195        4ZZ        -0.00006  -0.00004  -0.00002  -0.00002   0.00000
 196        4XY        -0.00001   0.00001  -0.00002  -0.00000   0.00000
 197        4XZ         0.00002  -0.00003   0.00004   0.00001  -0.00000
 198        4YZ        -0.00001   0.00001  -0.00000   0.00002   0.00000
 199 17  C  1S          0.00001  -0.00002  -0.00002   0.00000   0.00000
 200        2S          0.00001  -0.00011  -0.00009   0.00003   0.00007
 201        2PX         0.00002  -0.00005   0.00000   0.00007   0.00001
 202        2PY         0.00001  -0.00002  -0.00001  -0.00003   0.00000
 203        2PZ         0.00000  -0.00002   0.00001  -0.00002  -0.00001
 204        3S         -0.00032   0.00077   0.00073  -0.00045  -0.00012
 205        3PX        -0.00008  -0.00006  -0.00040  -0.00036  -0.00029
 206        3PY        -0.00004   0.00008  -0.00008   0.00009  -0.00001
 207        3PZ        -0.00013  -0.00027   0.00013  -0.00001  -0.00000
 208        4XX         0.00002  -0.00000   0.00001  -0.00001  -0.00007
 209        4YY         0.00002  -0.00001  -0.00003  -0.00001   0.00000
 210        4ZZ         0.00001   0.00001  -0.00002  -0.00002   0.00000
 211        4XY        -0.00001  -0.00001   0.00002   0.00003   0.00001
 212        4XZ         0.00000   0.00004  -0.00002  -0.00001  -0.00000
 213        4YZ        -0.00001   0.00000  -0.00001   0.00000  -0.00000
 214 18  H  1S         -0.00001   0.00007  -0.00005   0.00003  -0.00000
 215        2S          0.00004   0.00008  -0.00023   0.00018   0.00001
 216        3PX         0.00000  -0.00002   0.00004  -0.00001  -0.00000
 217        3PY         0.00001   0.00001  -0.00001   0.00001   0.00000
 218        3PZ         0.00000  -0.00006  -0.00001   0.00000  -0.00000
 219 19  H  1S         -0.00003  -0.00005  -0.00006   0.00002   0.00001
[...]
 195         V                 1.882379          3.254802
 196         V                 1.888781          3.232381
 197         V                 1.910122          3.364375
 198         V                 1.928699          3.373567
 199         V                 1.937388          3.222554
 200         V                 1.967705          3.262572
 201         V                 1.981471          3.378616
 202         V                 1.998186          3.455413
 203         V                 2.023341          3.233609
 204         V                 2.042425          3.466542
 205         V                 2.058048          3.489407
 206         V                 2.089692          3.307028
 207         V                 2.096764          3.392817
 208         V                 2.114927          3.417299
 209         V                 2.151098          3.387622
 210         V                 2.162061          3.279345
 211         V                 2.186246          3.362021
 212         V                 2.188003          3.527667
 213         V                 2.191753          3.455593
 214         V                 2.208851          3.503724
 215         V                 2.213835          3.257270
 216         V                 2.249773          3.203860
 217         V                 2.288776          3.723160
 218         V                 2.299231          3.625104
 219         V                 2.318875          3.612538
 220         V                 2.321379          3.691250
 221         V                 2.338989          3.592546
 222         V                 2.350837          3.409638
 223         V                 2.372649          3.610528
 224         V                 2.381738          3.745909
 225         V                 2.391638          3.721933
 226         V                 2.435853          4.116108
 227         V                 2.460350          4.079136
 228         V                 2.478506          4.348820
 229         V                 2.491134          3.728241
 230         V                 2.502059          3.721462
 231         V                 2.540512          3.880839
 232         V                 2.585663          3.941481
 233         V                 2.596731          3.736442
 234         V                 2.600627          3.662627
 235         V                 2.601355          4.053161
 236         V                 2.605654          3.801775
 237         V                 2.617701          3.892804
 238         V                 2.624763          3.786011
 239         V                 2.640985          3.765549
 240         V                 2.666213          3.909311
 241         V                 2.680992          3.934506
 242         V                 2.682049          3.958776
 243         V                 2.685810          3.914130
 244         V                 2.717641          4.026474
 245         V                 2.724268          3.990503
 246         V                 2.739769          3.856985
 247         V                 2.767900          4.015981
 248         V                 2.800978          4.675013
 249         V                 2.810170          4.716929
 250         V                 2.828573          4.127736
 251         V                 2.844375          3.976556
 252         V                 2.858175          4.021042
 253         V                 2.867804          4.109921
 254         V                 2.892328          4.126411
 255         V                 2.928227          4.192775
 256         V                 2.991502          4.629852
 257         V                 3.162902          5.325336
 258         V                 3.215435          5.216868
 259         V                 3.244458          5.019609
 260         V                 3.300210          5.056070
 261         V                 3.329943          6.354094
 262         V                 3.337431          5.924494
 263         V                 3.348030          5.930612
 264         V                 3.356183          6.140338
 265         V                 3.368217          6.173514
 266         V                 3.413310          5.279588
 267         V                 3.440395          6.122007
 268         V                 3.472939          6.907558
 269         V                 3.499443          8.256303
 270         V                 3.534998          6.908850
 271         V                 3.547301          8.736523
 272         V                 3.826546          9.404351
 273         V                 3.873452          9.592237
 274         V                 3.904943          9.507884
 275         V                 4.000054          9.975005
 276         V                 4.032970         10.438310
 277         V                 4.045736         10.445141
 278         V                 4.171876         10.314674
 279         V                 4.265707         10.251356
 280         V                 4.325215         10.813472
 281         V                 4.389896         10.574102
 282         V                 4.504172         10.312840
 283         V                 4.694776         10.548996
 Total kinetic energy from orbitals= 1.414744918112D+03
                          Isotropic Fermi Contact Couplings
        Atom                 a.u.       MegaHertz       Gauss      10(-4) cm-1
     1  C(13)             -0.00219      -2.46353      -0.87905      -0.82175
     2  O(17)              0.00467      -2.82861      -1.00932      -0.94352
     3  H(1)              -0.00046      -2.06770      -0.73781      -0.68971
     4  P(31)              0.00669      12.10809       4.32047       4.03882
     5  P(31)              0.00094       1.70639       0.60888       0.56919
     6  O(17)              0.00069      -0.41667      -0.14868      -0.13899
     7  H(1)               0.00007       0.31406       0.11207       0.10476
     8  O(17)              0.00004      -0.02503      -0.00893      -0.00835
     9  H(1)              -0.00005      -0.21727      -0.07753      -0.07247
    10  O(17)             -0.00015       0.09205       0.03285       0.03071
    11  H(1)              -0.00000      -0.00867      -0.00309      -0.00289
    12  O(17)             -0.00051       0.31000       0.11061       0.10340
    13  H(1)              -0.00004      -0.18212      -0.06498      -0.06075
    14  O(17)              0.00249      -1.50853      -0.53828      -0.50319
    15  O(17)              0.00139      -0.84115      -0.30014      -0.28058
    16  C(13)             -0.00174      -1.96153      -0.69992      -0.65430
    17  C(13)              0.00369       4.14274       1.47823       1.38187
    18  H(1)              -0.00003      -0.15618      -0.05573      -0.05210
    19  H(1)               0.00025       1.09556       0.39092       0.36544
    20  C(13)             -0.01689     -18.98668      -6.77492      -6.33327
    21  H(1)               0.00135       6.05546       2.16074       2.01988
    22  H(1)              -0.00024      -1.07650      -0.38412      -0.35908
    23  H(1)               0.05670     253.45877      90.44039      84.54475
    24  H(1)               0.00737      32.94637      11.75608      10.98973
    25  N(14)              0.36109     116.67036      41.63088      38.91704
    26  H(1)               0.00036       1.59661       0.56971       0.53257
    27  H(1)               0.00046       2.07559       0.74062       0.69234
 --------------------------------------------------------
       Center         ----  Spin Dipole Couplings  ----
                      3XX-RR        3YY-RR        3ZZ-RR
 --------------------------------------------------------
     1   Atom        0.003856      0.006908     -0.010764
     2   Atom       -0.036479      0.096338     -0.059858
     3   Atom        0.004351     -0.001712     -0.002638
     4   Atom        0.009595     -0.007110     -0.002486
     5   Atom       -0.003710      0.003126      0.000584
     6   Atom        0.002973     -0.002716     -0.000257
     7   Atom        0.000736     -0.000278     -0.000458
     8   Atom       -0.002483      0.006747     -0.004264
     9   Atom        0.000300      0.000077     -0.000377
    10   Atom        0.002549     -0.001681     -0.000869
    11   Atom        0.000329      0.000148     -0.000477
    12   Atom       -0.003587     -0.003131      0.006718
    13   Atom        0.000507      0.000747     -0.001254
    14   Atom       -0.045520      0.094733     -0.049213
    15   Atom        0.022921      0.004329     -0.027250
    16   Atom        0.006363     -0.004816     -0.001547
    17   Atom        0.039881     -0.017420     -0.022461
    18   Atom        0.004024     -0.001548     -0.002476
    19   Atom        0.003953     -0.002828     -0.001125
    20   Atom       -0.047600     -0.049759      0.097359
    21   Atom        0.009265     -0.007720     -0.001545
    22   Atom        0.003993      0.002043     -0.006036
    23   Atom       -0.010402     -0.013873      0.024274
    24   Atom       -0.004436      0.016389     -0.011954
    25   Atom       -0.782762     -0.672260      1.455021
    26   Atom       -0.065276      0.061864      0.003412
    27   Atom        0.025272      0.000268     -0.025541
 --------------------------------------------------------
                        XY            XZ            YZ
 --------------------------------------------------------
     1   Atom        0.016356      0.001001      0.001352
     2   Atom        0.059567     -0.004053     -0.016542
     3   Atom       -0.001972      0.003821     -0.001460
     4   Atom        0.008721     -0.013185     -0.007238
     5   Atom       -0.001484     -0.000665      0.011307
     6   Atom       -0.002086      0.004590     -0.001938
     7   Atom        0.000395      0.000305      0.000056
     8   Atom        0.007521      0.003125      0.005682
     9   Atom        0.000603     -0.000035     -0.000467
    10   Atom       -0.001279      0.002647     -0.000116
    11   Atom       -0.000657      0.000160     -0.000054
    12   Atom        0.001075     -0.003996     -0.005928
    13   Atom       -0.001256      0.000061     -0.000076
    14   Atom       -0.004707     -0.001057      0.009103
    15   Atom        0.042858     -0.014623     -0.012658
    16   Atom        0.000696     -0.003406     -0.001789
    17   Atom       -0.024725      0.015986     -0.007671
    18   Atom        0.001766      0.000577     -0.000142
    19   Atom       -0.000595     -0.001441     -0.000361
    20   Atom        0.011388     -0.024265     -0.049713
    21   Atom       -0.003949      0.004996     -0.002521
    22   Atom       -0.008119     -0.002848      0.002737
    23   Atom        0.003435     -0.005299     -0.008750
    24   Atom        0.013056     -0.000122      0.002627
    25   Atom       -0.008767      0.049695     -0.511967
    26   Atom        0.024273      0.013606      0.052329
    27   Atom       -0.081460      0.009416     -0.016153
 --------------------------------------------------------


 ---------------------------------------------------------------------------------
              Anisotropic Spin Dipole Couplings in Principal Axis System
 ---------------------------------------------------------------------------------

       Atom             a.u.   MegaHertz   Gauss  10(-4) cm-1        Axes

              Baa    -0.0111    -1.495    -0.534    -0.499  0.6223 -0.6014  0.5011
     1 C(13)  Bbb    -0.0108    -1.443    -0.515    -0.481 -0.4008  0.3051  0.8639
              Bcc     0.0219     2.938     1.048     0.980  0.6724  0.7384  0.0512
 
              Baa    -0.0627     4.540     1.620     1.514 -0.4598  0.2605  0.8490
     2 O(17)  Bbb    -0.0580     4.196     1.497     1.399  0.8140 -0.2585  0.5202
              Bcc     0.1207    -8.735    -3.117    -2.914  0.3549  0.9302 -0.0932
 
              Baa    -0.0045    -2.377    -0.848    -0.793 -0.3410  0.2389  0.9092
     3 H(1)   Bbb    -0.0023    -1.206    -0.430    -0.402  0.3447  0.9316 -0.1155
              Bcc     0.0067     3.583     1.279     1.195  0.8746 -0.2740  0.4000
 
              Baa    -0.0125    -2.700    -0.963    -0.901  0.1249  0.7184  0.6844
     4 P(31)  Bbb    -0.0099    -2.134    -0.761    -0.712  0.6158 -0.5970  0.5142
              Bcc     0.0224     4.834     1.725     1.612  0.7780  0.3572 -0.5169
 
              Baa    -0.0096    -2.068    -0.738    -0.690 -0.0854 -0.6683  0.7390
     5 P(31)  Bbb    -0.0038    -0.823    -0.294    -0.275  0.9922  0.0102  0.1240
              Bcc     0.0134     2.891     1.032     0.964 -0.0904  0.7438  0.6623
 
              Baa    -0.0039     0.281     0.100     0.094 -0.2442  0.6920  0.6793
     6 O(17)  Bbb    -0.0032     0.229     0.082     0.076  0.5787  0.6661 -0.4705
              Bcc     0.0070    -0.509    -0.182    -0.170  0.7781 -0.2782  0.5632
 
              Baa    -0.0005    -0.289    -0.103    -0.096 -0.2969  0.2488  0.9219
     7 H(1)   Bbb    -0.0004    -0.212    -0.076    -0.071 -0.2329  0.9175 -0.3226
              Bcc     0.0009     0.501     0.179     0.167  0.9261  0.3105  0.2145
 
              Baa    -0.0067     0.486     0.174     0.162  0.6401 -0.5732  0.5115
     8 O(17)  Bbb    -0.0066     0.479     0.171     0.160 -0.6172  0.0129  0.7867
              Bcc     0.0133    -0.966    -0.345    -0.322  0.4576  0.8193  0.3456
 
              Baa    -0.0008    -0.412    -0.147    -0.137 -0.3281  0.6237  0.7094
     9 H(1)   Bbb    -0.0001    -0.064    -0.023    -0.021  0.6388 -0.4067  0.6531
              Bcc     0.0009     0.476     0.170     0.159  0.6959  0.6675 -0.2650
 
              Baa    -0.0027     0.192     0.068     0.064 -0.4818 -0.5536  0.6793
    10 O(17)  Bbb    -0.0016     0.114     0.041     0.038 -0.1184  0.8092  0.5755
              Bcc     0.0042    -0.306    -0.109    -0.102  0.8683 -0.1968  0.4554
 
              Baa    -0.0005    -0.284    -0.101    -0.095 -0.4073 -0.3262  0.8530
    11 H(1)   Bbb    -0.0004    -0.206    -0.074    -0.069  0.5172  0.6874  0.5098
              Bcc     0.0009     0.490     0.175     0.164  0.7527 -0.6489  0.1113
 
              Baa    -0.0062     0.452     0.161     0.151  0.4102  0.7749  0.4809
    12 O(17)  Bbb    -0.0044     0.320     0.114     0.107  0.8694 -0.4915  0.0503
              Bcc     0.0107    -0.772    -0.275    -0.257 -0.2754 -0.3975  0.8753
 
              Baa    -0.0013    -0.671    -0.239    -0.224 -0.0138  0.0294  0.9995
    13 H(1)   Bbb    -0.0006    -0.339    -0.121    -0.113  0.7402  0.6724 -0.0096
              Bcc     0.0019     1.009     0.360     0.337 -0.6723  0.7396 -0.0311
 
              Baa    -0.0499     3.612     1.289     1.205  0.1760 -0.0561  0.9828
    14 O(17)  Bbb    -0.0455     3.296     1.176     1.099  0.9838  0.0443 -0.1737
              Bcc     0.0955    -6.908    -2.465    -2.304 -0.0338  0.9974  0.0630
 
              Baa    -0.0317     2.297     0.819     0.766 -0.1002  0.4334  0.8956
    15 O(17)  Bbb    -0.0299     2.167     0.773     0.723 -0.6425  0.6591 -0.3908
              Bcc     0.0617    -4.463    -1.593    -1.489  0.7597  0.6146 -0.2124
 
              Baa    -0.0057    -0.760    -0.271    -0.253  0.0759  0.8899  0.4499
    16 C(13)  Bbb    -0.0021    -0.281    -0.100    -0.094  0.3657 -0.4446  0.8177
              Bcc     0.0078     1.041     0.371     0.347  0.9276  0.1024 -0.3592
 
              Baa    -0.0282    -3.781    -1.349    -1.261  0.1009  0.7209  0.6856
    17 C(13)  Bbb    -0.0250    -3.358    -1.198    -1.120 -0.3996 -0.6017  0.6916
              Bcc     0.0532     7.139     2.547     2.381  0.9111 -0.3437  0.2274
 
              Baa    -0.0027    -1.419    -0.506    -0.473 -0.1849  0.4079  0.8941
    18 H(1)   Bbb    -0.0019    -1.021    -0.364    -0.341 -0.2160  0.8707 -0.4418
              Bcc     0.0046     2.440     0.871     0.814  0.9587  0.2748  0.0729
 
              Baa    -0.0030    -1.614    -0.576    -0.538  0.1399  0.9479  0.2861
    19 H(1)   Bbb    -0.0013    -0.715    -0.255    -0.239  0.2169 -0.3113  0.9252
              Bcc     0.0044     2.330     0.831     0.777  0.9661 -0.0674 -0.2491
 
              Baa    -0.0660    -8.853    -3.159    -2.953 -0.2535  0.9353  0.2470
    20 C(13)  Bbb    -0.0509    -6.829    -2.437    -2.278  0.9541  0.1997  0.2231
              Bcc     0.1169    15.682     5.596     5.231 -0.1594 -0.2922  0.9430
 
              Baa    -0.0089    -4.760    -1.698    -1.588  0.1457  0.9622  0.2301
    21 H(1)   Bbb    -0.0034    -1.792    -0.639    -0.598 -0.4049 -0.1542  0.9012
              Bcc     0.0123     6.551     2.338     2.185  0.9027 -0.2245  0.3672
 
              Baa    -0.0069    -3.687    -1.316    -1.230  0.1006 -0.2064  0.9733
    22 H(1)   Bbb    -0.0051    -2.746    -0.980    -0.916  0.6764  0.7316  0.0852
              Bcc     0.0121     6.433     2.295     2.146  0.7296 -0.6498 -0.2132
 
              Baa    -0.0167    -8.904    -3.177    -2.970 -0.3762  0.9148  0.1467
    23 H(1)   Bbb    -0.0104    -5.565    -1.986    -1.856  0.9133  0.3395  0.2250
              Bcc     0.0271    14.469     5.163     4.826 -0.1561 -0.2187  0.9632
 
              Baa    -0.0128    -6.852    -2.445    -2.286  0.4328 -0.2706  0.8599
    24 H(1)   Bbb    -0.0100    -5.330    -1.902    -1.778  0.7920 -0.3416 -0.5061
              Bcc     0.0228    12.181     4.347     4.063  0.4307  0.9001  0.0665
 
              Baa    -0.7901   -30.471   -10.873   -10.164 -0.3731  0.9027  0.2141
    25 N(14)  Bbb    -0.7828   -30.192   -10.773   -10.071  0.9275  0.3683  0.0637
              Bcc     1.5729    60.663    21.646    20.235  0.0214 -0.2224  0.9747
 
              Baa    -0.0700   -37.371   -13.335   -12.466  0.9856 -0.1519 -0.0744
    26 H(1)   Bbb    -0.0273   -14.562    -5.196    -4.857 -0.0124 -0.5036  0.8638
              Bcc     0.0973    51.933    18.531    17.323  0.1686  0.8505  0.4983
 
              Baa    -0.0705   -37.623   -13.425   -12.550  0.6333  0.7610  0.1407
    27 H(1)   Bbb    -0.0272   -14.516    -5.180    -4.842 -0.1994 -0.0152  0.9798
              Bcc     0.0977    52.139    18.605    17.392  0.7477 -0.6486  0.1421
 

 ---------------------------------------------------------------------------------


 Test job not archived.
 1\1\GINC-BATAGIN2\SP\UB3LYP\6-31G(d,p)\C4H13N1O7P2(1+,2)\ORISON\22-Jan
 -2021\0\\#t B3LYP/6-31G(d,p) scrf=(solvent=water) # Gfinput IOP(6/7=3)
  Pop=hirshfeld Density Test # Units(Ang,Deg)\\w-alendronate-opt-g09.lo
 g\\1,2\C,0,0.22759,0.14706,-0.33605\O,0,0.14244,0.20912,-1.7513\H,0,0.
 99734,-0.06391,-2.12067\P,0,1.7528,1.07379,0.23326\P,0,0.29324,-1.6325
 5,0.23573\O,0,2.7772,0.69408,-0.95586\H,0,3.4046,1.4049,-1.1633\O,0,1.
 47215,2.63387,-0.10221\H,0,1.28307,3.14832,0.69829\O,0,1.74992,-2.0391
 5,-0.32655\H,0,1.91307,-2.99616,-0.32896\O,0,-0.67436,-2.4556,-0.77065
 \H,0,-1.47247,-2.77113,-0.31948\O,0,0.00415,-1.86375,1.67776\O,0,2.174
 8,0.80631,1.63482\C,0,-1.01172,0.85985,0.24918\C,0,-2.3701,0.26816,-0.
 1534\H,0,-0.96219,1.89644,-0.09998\H,0,-0.91942,0.8791,1.34031\C,0,-3.
 5244,1.19058,0.24862\H,0,-2.40402,0.10102,-1.23385\H,0,-2.52107,-0.704
 31,0.33143\H,0,-3.45073,1.41336,1.32713\H,0,-3.41771,2.14878,-0.27471\
 N,0,-4.81289,0.60203,-0.14436\H,0,-4.99049,-0.21768,0.43474\H,0,-5.559
 ,1.25541,0.08647\\Version=EM64L-G16RevA.03\State=2-A\HF=-1424.1972392\
 S2=0.753453\S2-1=0.\S2A=0.750009\RMSD=9.051e-09\Dipole=-7.4946403,1.93
 39634,-1.0171665\Quadrupole=45.668573,-8.9889374,-36.6796355,-7.603730
 7,-13.9369985,5.8129082\PG=C01 [X(C4H13N1O7P2)]\\@


 WERE I TO AWAIT PERFECTION, MY BOOK WOULD NEVER BE FINISHED.
                                    -- HISTORY OF CHINESE WRITING

                                       TAI T'UNG, 13TH CENTURY
 Job cpu time:       0 days  0 hours 21 minutes 19.3 seconds.
 Elapsed time:       0 days  0 hours  2 minutes 40.3 seconds.
 File lengths (MBytes):  RWF=    155 Int=      0 D2E=      0 Chk=      7 Scr=      1
 Normal termination of Gaussian 16 at Fri Jan 22 02:42:37 2021.
