 Entering Gaussian System, Link 0=g16
 Input=ris-3dp_cation_scf_g09.com
 Output=ris-3dp_cation_scf_g09.log
 Initial command:
 /opt/g16//g16/l1.exe "/home/orison/scrgauss/Gau-14703.inp" -scrdir="/home/orison/scrgauss/"
 Entering Link 1 = /opt/g16//g16/l1.exe PID=     14705.
  
 Copyright (c) 1988,1990,1992,1993,1995,1998,2003,2009,2016,
            Gaussian, Inc.  All Rights Reserved.
  
 This is part of the Gaussian(R) 16 program.  It is based on
 the Gaussian(R) 09 system (copyright 2009, Gaussian, Inc.),
 the Gaussian(R) 03 system (copyright 2003, Gaussian, Inc.),
 the Gaussian(R) 98 system (copyright 1998, Gaussian, Inc.),
 the Gaussian(R) 94 system (copyright 1995, Gaussian, Inc.),
 the Gaussian 92(TM) system (copyright 1992, Gaussian, Inc.),
 the Gaussian 90(TM) system (copyright 1990, Gaussian, Inc.),
 the Gaussian 88(TM) system (copyright 1988, Gaussian, Inc.),
 the Gaussian 86(TM) system (copyright 1986, Carnegie Mellon
 University), and the Gaussian 82(TM) system (copyright 1983,
 Carnegie Mellon University). Gaussian is a federally registered
 trademark of Gaussian, Inc.
  
 This software contains proprietary and confidential information,
 including trade secrets, belonging to Gaussian, Inc.
  
 This software is provided under written license and may be
 used, copied, transmitted, or stored only in accord with that
 written license.
  
 The following legend is applicable only to US Government
 contracts under FAR:
  
                    RESTRICTED RIGHTS LEGEND
  
 Use, reproduction and disclosure by the US Government is
 subject to restrictions as set forth in subparagraphs (a)
 and (c) of the Commercial Computer Software - Restricted
 Rights clause in FAR 52.227-19.
  
 Gaussian, Inc.
 340 Quinnipiac St., Bldg. 40, Wallingford CT 06492
  
  
 ---------------------------------------------------------------
 Warning -- This program may not be used in any manner that
 competes with the business of Gaussian, Inc. or will provide
 assistance to any competitor of Gaussian, Inc.  The licensee
 of this program is prohibited from giving any competitor of
 Gaussian, Inc. access to this program.  By using this program,
 the user acknowledges that Gaussian, Inc. is engaged in the
 business of creating and licensing software in the field of
 computational chemistry and represents and warrants to the
 licensee that it is not a competitor of Gaussian, Inc. and that
 it will not use this program in any manner prohibited above.
 ---------------------------------------------------------------
  

 Cite this work as:
 Gaussian 16, Revision A.03,
 M. J. Frisch, G. W. Trucks, H. B. Schlegel, G. E. Scuseria, 
 M. A. Robb, J. R. Cheeseman, G. Scalmani, V. Barone, 
 G. A. Petersson, H. Nakatsuji, X. Li, M. Caricato, A. V. Marenich, 
 J. Bloino, B. G. Janesko, R. Gomperts, B. Mennucci, H. P. Hratchian, 
 J. V. Ortiz, A. F. Izmaylov, J. L. Sonnenberg, D. Williams-Young, 
 F. Ding, F. Lipparini, F. Egidi, J. Goings, B. Peng, A. Petrone, 
 T. Henderson, D. Ranasinghe, V. G. Zakrzewski, J. Gao, N. Rega, 
 G. Zheng, W. Liang, M. Hada, M. Ehara, K. Toyota, R. Fukuda, 
 J. Hasegawa, M. Ishida, T. Nakajima, Y. Honda, O. Kitao, H. Nakai, 
 T. Vreven, K. Throssell, J. A. Montgomery, Jr., J. E. Peralta, 
 F. Ogliaro, M. J. Bearpark, J. J. Heyd, E. N. Brothers, K. N. Kudin, 
 V. N. Staroverov, T. A. Keith, R. Kobayashi, J. Normand, 
 K. Raghavachari, A. P. Rendell, J. C. Burant, S. S. Iyengar, 
 J. Tomasi, M. Cossi, J. M. Millam, M. Klene, C. Adamo, R. Cammi, 
 J. W. Ochterski, R. L. Martin, K. Morokuma, O. Farkas, 
 J. B. Foresman, and D. J. Fox, Gaussian, Inc., Wallingford CT, 2016.
 
 ******************************************
 Gaussian 16:  EM64L-G16RevA.03 25-Dec-2016
                 8-Feb-2021 
 ******************************************
 %nproc=8
 Will use up to    8 processors via shared memory.
 %Mem=4GB
 ----------------------------------------------------------------------
 #t B3LYP/6-31G(d,p) scrf=(solvent=water) # Gfinput IOP(6/7=3) Pop=hirs
 hfeld Density Test # Units(Ang,Deg)
 ----------------------------------------------------------------------
 ---------------------
 ris-1-3dp-opt-g09.log
 ---------------------
 Symbolic Z-matrix:
 Charge = -2 Multiplicity = 2
 C                     0.34401  -0.81685  -0.79732 
 H                     0.18502  -0.4238   -1.80609 
 H                     0.10652  -1.88524  -0.83502 
 C                    -0.72798  -0.18407   0.12339 
 O                    -0.45089  -0.54928   1.50739 
 H                    -1.3804   -0.80428   1.79039 
 C                     1.79732  -0.64509  -0.42568 
 C                     2.36088  -1.28439   0.68795 
 C                     2.67521   0.11002  -1.21688 
 C                     3.71914  -1.13039   0.95998 
 H                     1.72703  -1.882     1.33407 
 N                     3.98634   0.26637  -0.9801 
 H                     2.28209   0.62611  -2.09148 
 C                     4.49071  -0.34905   0.10016 
 H                     4.17713  -1.61272   1.81851 
 H                     5.55605  -0.21532   0.28196 
 P                    -0.67888   1.68546   0.08109 
 P                    -2.43929  -0.99552  -0.23769 
 O                    -1.84705   2.32882   0.81227 
 O                     0.67663   1.88771   1.06107 
 O                    -0.3209    2.20643  -1.30282 
 O                    -2.93123  -1.14432   1.24251 
 O                    -2.13975  -2.35232  -0.90779 
 O                    -3.28137  -0.04581  -1.10617 
 H                     0.61546   1.13242   1.67605 
 
                    Distance matrix (angstroms):
                    1          2          3          4          5
     1  C    0.000000
     2  H    1.094250   0.000000
     3  H    1.095116   1.756401   0.000000
     4  C    1.548315   2.148007   2.123422   0.000000
     5  O    2.452580   3.376281   2.753612   1.457948   0.000000
     6  H    3.109661   3.940809   3.205025   1.894519   1.004541
     7  C    1.509877   2.134013   2.136431   2.625101   2.966545
     8  C    2.548016   3.419827   2.786144   3.327234   3.019589
     9  C    2.543543   2.614035   3.274912   3.669403   4.198669
    10  C    3.818103   4.543173   4.104004   4.623016   4.245762
    11  H    2.755016   3.790085   2.707585   3.221147   2.559203
    12  N    3.804385   3.950776   4.438860   4.862654   5.151883
    13  H    2.741010   2.362512   3.552277   3.823946   4.669324
    14  C    4.268422   4.709389   4.738730   5.221349   5.141964
    15  H    4.708374   5.521612   4.866760   5.382804   4.758810
    16  H    5.356496   5.766401   5.808068   6.286108   6.139750
    17  P    2.842440   2.959181   3.769086   1.870653   2.660897
    18  P    2.844621   3.110265   2.762165   1.928059   2.682940
    19  O    4.157735   4.308368   4.928316   2.835752   3.273517
    20  O    3.298317   3.715557   4.260908   2.672910   2.722026
    21  O    3.136536   2.725316   4.140445   2.813233   3.938034
    22  O    3.872382   4.418611   3.754067   2.651192   2.564434
    23  O    2.922146   3.151299   2.295471   2.785271   3.454894
    24  O    3.719311   3.556490   3.864560   2.837382   3.885331
    25  H    3.160838   3.838281   3.958632   2.439002   1.998415
                    6          7          8          9         10
     6  H    0.000000
     7  C    3.877398   0.000000
     8  C    3.929765   1.402311   0.000000
     9  C    5.131042   1.402455   2.381504   0.000000
    10  C    5.176991   2.418463   1.393767   2.714245   0.000000
    11  H    3.320516   2.152117   1.084608   3.372615   2.161796
    12  N    6.133825   2.435149   2.798101   1.341481   2.405461
    13  H    5.525284   2.150777   3.373640   1.088952   3.802869
    14  C    6.126503   2.760163   2.399278   2.289406   1.394669
    15  H    5.616093   3.411186   2.164424   3.799630   1.086034
    16  H    7.122961   3.848832   3.393648   3.263680   2.161320
    17  P    3.100426   3.438000   4.292835   3.926405   5.295662
    18  P    2.295850   4.255233   4.897131   5.323452   6.275258
    19  O    3.315237   4.863959   5.547740   5.430595   6.555183
    20  O    3.465558   3.143477   3.610836   3.513340   4.286725
    21  O    4.444644   3.658879   4.831246   3.657731   5.707587
    22  O    1.679546   5.038975   5.322930   6.249331   6.656383
    23  O    3.202064   4.318285   4.893111   5.416871   6.269631
    24  O    3.546692   5.159001   6.048796   5.959646   7.379189
    25  H    2.783404   2.995597   3.140669   3.695526   3.907159
                   11         12         13         14         15
    11  H    0.000000
    12  N    3.882700   0.000000
    13  H    4.281717   2.066167   0.000000
    14  C    3.392698   1.341675   3.260709   0.000000
    15  H    2.512008   3.376329   4.887899   2.155904   0.000000
    16  H    4.306524   2.070944   4.130380   1.088983   2.493017
    17  P    4.481644   4.990413   3.822254   5.555561   6.121883
    18  P    4.540319   6.590316   5.325190   6.968283   6.955998
    19  O    5.547732   6.441640   5.327362   6.917029   7.269044
    20  O    3.922828   4.212992   3.756023   4.524782   5.008016
    21  O    5.278491   4.735008   3.145624   5.625871   6.675394
    22  O    4.717196   7.401541   6.436507   7.551332   7.147024
    23  O    4.494344   6.662713   5.461212   6.999432   6.919732
    24  O    5.866041   7.275504   5.689851   7.870986   8.163221
    25  H    3.230985   4.378128   4.150697   4.437989   4.499065
                   16         17         18         19         20
    16  H    0.000000
    17  P    6.521324   0.000000
    18  P    8.050106   3.223091   0.000000
    19  O    7.846003   1.520907   3.536156   0.000000
    20  O    5.370148   1.684836   4.439454   2.573993   0.000000
    21  O    6.550950   1.521436   3.984289   2.611076   2.585464
    22  O    8.591834   3.798636   1.566888   3.663776   4.716225
    23  O    8.075123   4.406324   1.542616   4.995733   5.457679
    24  O    8.947381   3.343626   1.537955   3.372915   4.909297
    25  H    5.307478   2.127220   4.185932   2.870792   0.975912
                   21         22         23         24         25
    21  O    0.000000
    22  O    4.951773   0.000000
    23  O    4.924070   2.590269   0.000000
    24  O    3.725002   2.616414   2.581209   0.000000
    25  H    3.302111   4.236804   5.139146   4.930949   0.000000
 Framework group  C1[X(C7H8NO7P2)]
 Deg. of freedom    69
                         Standard orientation:                         
 ---------------------------------------------------------------------
 Center     Atomic      Atomic             Coordinates (Angstroms)
 Number     Number       Type             X           Y           Z
 ---------------------------------------------------------------------
      1          6           0        0.344010   -0.816849   -0.797320
      2          1           0        0.185020   -0.423799   -1.806090
      3          1           0        0.106520   -1.885238   -0.835020
      4          6           0       -0.727980   -0.184068    0.123390
      5          8           0       -0.450890   -0.549278    1.507390
      6          1           0       -1.380400   -0.804278    1.790390
      7          6           0        1.797320   -0.645089   -0.425680
      8          6           0        2.360880   -1.284389    0.687950
      9          6           0        2.675210    0.110021   -1.216880
     10          6           0        3.719140   -1.130390    0.959980
     11          1           0        1.727030   -1.881999    1.334070
     12          7           0        3.986340    0.266370   -0.980100
     13          1           0        2.282090    0.626111   -2.091480
     14          6           0        4.490710   -0.349050    0.100160
     15          1           0        4.177130   -1.612720    1.818510
     16          1           0        5.556050   -0.215320    0.281960
     17         15           0       -0.678879    1.685462    0.081090
     18         15           0       -2.439290   -0.995518   -0.237690
     19          8           0       -1.847049    2.328822    0.812270
     20          8           0        0.676631    1.887711    1.061070
     21          8           0       -0.320899    2.206432   -1.302820
     22          8           0       -2.931230   -1.144318    1.242510
     23          8           0       -2.139751   -2.352318   -0.907790
     24          8           0       -3.281370   -0.045807   -1.106170
     25          1           0        0.615460    1.132421    1.676050
 ---------------------------------------------------------------------
 Rotational constants (GHZ):           0.6765170           0.2862326           0.2459880
 AO basis set in the form of general basis input (Overlap normalization):
      1 0
 S   6 1.00       0.000000000000
      0.3047524880D+04  0.1834737132D-02
      0.4573695180D+03  0.1403732281D-01
      0.1039486850D+03  0.6884262226D-01
      0.2921015530D+02  0.2321844432D+00
      0.9286662960D+01  0.4679413484D+00
      0.3163926960D+01  0.3623119853D+00
 SP   3 1.00       0.000000000000
      0.7868272350D+01 -0.1193324198D+00  0.6899906659D-01
      0.1881288540D+01 -0.1608541517D+00  0.3164239610D+00
      0.5442492580D+00  0.1143456438D+01  0.7443082909D+00
 SP   1 1.00       0.000000000000
      0.1687144782D+00  0.1000000000D+01  0.1000000000D+01
 D   1 1.00       0.000000000000
      0.8000000000D+00  0.1000000000D+01
 ****
      2 0
 S   3 1.00       0.000000000000
      0.1873113696D+02  0.3349460434D-01
      0.2825394365D+01  0.2347269535D+00
      0.6401216923D+00  0.8137573261D+00
 S   1 1.00       0.000000000000
      0.1612777588D+00  0.1000000000D+01
 P   1 1.00       0.000000000000
      0.1100000000D+01  0.1000000000D+01
 ****
      3 0
 S   3 1.00       0.000000000000
      0.1873113696D+02  0.3349460434D-01
      0.2825394365D+01  0.2347269535D+00
      0.6401216923D+00  0.8137573261D+00
 S   1 1.00       0.000000000000
      0.1612777588D+00  0.1000000000D+01
 P   1 1.00       0.000000000000
      0.1100000000D+01  0.1000000000D+01
 ****
      4 0
 S   6 1.00       0.000000000000
      0.3047524880D+04  0.1834737132D-02
      0.4573695180D+03  0.1403732281D-01
      0.1039486850D+03  0.6884262226D-01
      0.2921015530D+02  0.2321844432D+00
      0.9286662960D+01  0.4679413484D+00
      0.3163926960D+01  0.3623119853D+00
 SP   3 1.00       0.000000000000
      0.7868272350D+01 -0.1193324198D+00  0.6899906659D-01
      0.1881288540D+01 -0.1608541517D+00  0.3164239610D+00
      0.5442492580D+00  0.1143456438D+01  0.7443082909D+00
 SP   1 1.00       0.000000000000
      0.1687144782D+00  0.1000000000D+01  0.1000000000D+01
 D   1 1.00       0.000000000000
      0.8000000000D+00  0.1000000000D+01
 ****
      5 0
 S   6 1.00       0.000000000000
      0.5484671660D+04  0.1831074430D-02
      0.8252349460D+03  0.1395017220D-01
      0.1880469580D+03  0.6844507810D-01
      0.5296450000D+02  0.2327143360D+00
      0.1689757040D+02  0.4701928980D+00
      0.5799635340D+01  0.3585208530D+00
 SP   3 1.00       0.000000000000
      0.1553961625D+02 -0.1107775495D+00  0.7087426823D-01
      0.3599933586D+01 -0.1480262627D+00  0.3397528391D+00
      0.1013761750D+01  0.1130767015D+01  0.7271585773D+00
 SP   1 1.00       0.000000000000
      0.2700058226D+00  0.1000000000D+01  0.1000000000D+01
 D   1 1.00       0.000000000000
      0.8000000000D+00  0.1000000000D+01
 ****
      6 0
 S   3 1.00       0.000000000000
      0.1873113696D+02  0.3349460434D-01
      0.2825394365D+01  0.2347269535D+00
      0.6401216923D+00  0.8137573261D+00
 S   1 1.00       0.000000000000
      0.1612777588D+00  0.1000000000D+01
 P   1 1.00       0.000000000000
      0.1100000000D+01  0.1000000000D+01
 ****
      7 0
 S   6 1.00       0.000000000000
      0.3047524880D+04  0.1834737132D-02
      0.4573695180D+03  0.1403732281D-01
      0.1039486850D+03  0.6884262226D-01
      0.2921015530D+02  0.2321844432D+00
      0.9286662960D+01  0.4679413484D+00
      0.3163926960D+01  0.3623119853D+00
 SP   3 1.00       0.000000000000
      0.7868272350D+01 -0.1193324198D+00  0.6899906659D-01
      0.1881288540D+01 -0.1608541517D+00  0.3164239610D+00
      0.5442492580D+00  0.1143456438D+01  0.7443082909D+00
 SP   1 1.00       0.000000000000
      0.1687144782D+00  0.1000000000D+01  0.1000000000D+01
 D   1 1.00       0.000000000000
      0.8000000000D+00  0.1000000000D+01
 ****
      8 0
 S   6 1.00       0.000000000000
      0.3047524880D+04  0.1834737132D-02
      0.4573695180D+03  0.1403732281D-01
      0.1039486850D+03  0.6884262226D-01
      0.2921015530D+02  0.2321844432D+00
      0.9286662960D+01  0.4679413484D+00
      0.3163926960D+01  0.3623119853D+00
 SP   3 1.00       0.000000000000
      0.7868272350D+01 -0.1193324198D+00  0.6899906659D-01
      0.1881288540D+01 -0.1608541517D+00  0.3164239610D+00
      0.5442492580D+00  0.1143456438D+01  0.7443082909D+00
 SP   1 1.00       0.000000000000
      0.1687144782D+00  0.1000000000D+01  0.1000000000D+01
 D   1 1.00       0.000000000000
      0.8000000000D+00  0.1000000000D+01
 ****
      9 0
 S   6 1.00       0.000000000000
      0.3047524880D+04  0.1834737132D-02
      0.4573695180D+03  0.1403732281D-01
      0.1039486850D+03  0.6884262226D-01
      0.2921015530D+02  0.2321844432D+00
      0.9286662960D+01  0.4679413484D+00
      0.3163926960D+01  0.3623119853D+00
 SP   3 1.00       0.000000000000
      0.7868272350D+01 -0.1193324198D+00  0.6899906659D-01
      0.1881288540D+01 -0.1608541517D+00  0.3164239610D+00
      0.5442492580D+00  0.1143456438D+01  0.7443082909D+00
 SP   1 1.00       0.000000000000
      0.1687144782D+00  0.1000000000D+01  0.1000000000D+01
 D   1 1.00       0.000000000000
      0.8000000000D+00  0.1000000000D+01
 ****
     10 0
 S   6 1.00       0.000000000000
      0.3047524880D+04  0.1834737132D-02
      0.4573695180D+03  0.1403732281D-01
      0.1039486850D+03  0.6884262226D-01
      0.2921015530D+02  0.2321844432D+00
      0.9286662960D+01  0.4679413484D+00
      0.3163926960D+01  0.3623119853D+00
 SP   3 1.00       0.000000000000
      0.7868272350D+01 -0.1193324198D+00  0.6899906659D-01
      0.1881288540D+01 -0.1608541517D+00  0.3164239610D+00
      0.5442492580D+00  0.1143456438D+01  0.7443082909D+00
 SP   1 1.00       0.000000000000
      0.1687144782D+00  0.1000000000D+01  0.1000000000D+01
 D   1 1.00       0.000000000000
      0.8000000000D+00  0.1000000000D+01
 ****
     11 0
 S   3 1.00       0.000000000000
      0.1873113696D+02  0.3349460434D-01
      0.2825394365D+01  0.2347269535D+00
      0.6401216923D+00  0.8137573261D+00
 S   1 1.00       0.000000000000
      0.1612777588D+00  0.1000000000D+01
 P   1 1.00       0.000000000000
      0.1100000000D+01  0.1000000000D+01
 ****
     12 0
 S   6 1.00       0.000000000000
      0.4173511460D+04  0.1834772160D-02
      0.6274579110D+03  0.1399462700D-01
      0.1429020930D+03  0.6858655181D-01
      0.4023432930D+02  0.2322408730D+00
      0.1282021290D+02  0.4690699481D+00
      0.4390437010D+01  0.3604551991D+00
 SP   3 1.00       0.000000000000
      0.1162636186D+02 -0.1149611817D+00  0.6757974388D-01
      0.2716279807D+01 -0.1691174786D+00  0.3239072959D+00
      0.7722183966D+00  0.1145851947D+01  0.7408951398D+00
 SP   1 1.00       0.000000000000
      0.2120314975D+00  0.1000000000D+01  0.1000000000D+01
 D   1 1.00       0.000000000000
      0.8000000000D+00  0.1000000000D+01
 ****
     13 0
 S   3 1.00       0.000000000000
      0.1873113696D+02  0.3349460434D-01
      0.2825394365D+01  0.2347269535D+00
      0.6401216923D+00  0.8137573261D+00
 S   1 1.00       0.000000000000
      0.1612777588D+00  0.1000000000D+01
 P   1 1.00       0.000000000000
      0.1100000000D+01  0.1000000000D+01
 ****
     14 0
 S   6 1.00       0.000000000000
      0.3047524880D+04  0.1834737132D-02
      0.4573695180D+03  0.1403732281D-01
      0.1039486850D+03  0.6884262226D-01
      0.2921015530D+02  0.2321844432D+00
      0.9286662960D+01  0.4679413484D+00
      0.3163926960D+01  0.3623119853D+00
 SP   3 1.00       0.000000000000
      0.7868272350D+01 -0.1193324198D+00  0.6899906659D-01
      0.1881288540D+01 -0.1608541517D+00  0.3164239610D+00
      0.5442492580D+00  0.1143456438D+01  0.7443082909D+00
 SP   1 1.00       0.000000000000
      0.1687144782D+00  0.1000000000D+01  0.1000000000D+01
 D   1 1.00       0.000000000000
      0.8000000000D+00  0.1000000000D+01
 ****
     15 0
 S   3 1.00       0.000000000000
      0.1873113696D+02  0.3349460434D-01
      0.2825394365D+01  0.2347269535D+00
      0.6401216923D+00  0.8137573261D+00
 S   1 1.00       0.000000000000
      0.1612777588D+00  0.1000000000D+01
 P   1 1.00       0.000000000000
      0.1100000000D+01  0.1000000000D+01
 ****
     16 0
 S   3 1.00       0.000000000000
      0.1873113696D+02  0.3349460434D-01
      0.2825394365D+01  0.2347269535D+00
      0.6401216923D+00  0.8137573261D+00
 S   1 1.00       0.000000000000
      0.1612777588D+00  0.1000000000D+01
 P   1 1.00       0.000000000000
      0.1100000000D+01  0.1000000000D+01
 ****
     17 0
 S   6 1.00       0.000000000000
      0.1941330000D+05  0.1851598923D-02
      0.2909420000D+04  0.1420619174D-01
      0.6613640000D+03  0.6999945928D-01
      0.1857590000D+03  0.2400788603D+00
      0.5919430000D+02  0.4847617180D+00
      0.2003100000D+02  0.3351998050D+00
 SP   6 1.00       0.000000000000
      0.3394780000D+03 -0.2782170105D-02  0.4564616191D-02
      0.8101010000D+02 -0.3604990135D-01  0.3369357188D-01
      0.2587800000D+02 -0.1166310044D+00  0.1397548834D+00
      0.9452210000D+01  0.9683280364D-01  0.3393617168D+00
      0.3665660000D+01  0.6144180231D+00  0.4509206237D+00
      0.1467460000D+01  0.4037980152D+00  0.2385858009D+00
 SP   3 1.00       0.000000000000
      0.2156230000D+01 -0.2529241139D+00 -0.1776531273D-01
      0.7489970000D+00  0.3285184468D-01  0.2740581964D+00
      0.2831450000D+00  0.1081254762D+01  0.7854215630D+00
 SP   1 1.00       0.000000000000
      0.9983170000D-01  0.1000000000D+01  0.1000000000D+01
 D   1 1.00       0.000000000000
      0.5500000000D+00  0.1000000000D+01
 ****
     18 0
 S   6 1.00       0.000000000000
      0.1941330000D+05  0.1851598923D-02
      0.2909420000D+04  0.1420619174D-01
      0.6613640000D+03  0.6999945928D-01
      0.1857590000D+03  0.2400788603D+00
      0.5919430000D+02  0.4847617180D+00
      0.2003100000D+02  0.3351998050D+00
 SP   6 1.00       0.000000000000
      0.3394780000D+03 -0.2782170105D-02  0.4564616191D-02
      0.8101010000D+02 -0.3604990135D-01  0.3369357188D-01
      0.2587800000D+02 -0.1166310044D+00  0.1397548834D+00
      0.9452210000D+01  0.9683280364D-01  0.3393617168D+00
      0.3665660000D+01  0.6144180231D+00  0.4509206237D+00
      0.1467460000D+01  0.4037980152D+00  0.2385858009D+00
 SP   3 1.00       0.000000000000
      0.2156230000D+01 -0.2529241139D+00 -0.1776531273D-01
      0.7489970000D+00  0.3285184468D-01  0.2740581964D+00
      0.2831450000D+00  0.1081254762D+01  0.7854215630D+00
 SP   1 1.00       0.000000000000
      0.9983170000D-01  0.1000000000D+01  0.1000000000D+01
 D   1 1.00       0.000000000000
      0.5500000000D+00  0.1000000000D+01
 ****
     19 0
 S   6 1.00       0.000000000000
      0.5484671660D+04  0.1831074430D-02
      0.8252349460D+03  0.1395017220D-01
      0.1880469580D+03  0.6844507810D-01
      0.5296450000D+02  0.2327143360D+00
      0.1689757040D+02  0.4701928980D+00
      0.5799635340D+01  0.3585208530D+00
 SP   3 1.00       0.000000000000
      0.1553961625D+02 -0.1107775495D+00  0.7087426823D-01
      0.3599933586D+01 -0.1480262627D+00  0.3397528391D+00
      0.1013761750D+01  0.1130767015D+01  0.7271585773D+00
 SP   1 1.00       0.000000000000
      0.2700058226D+00  0.1000000000D+01  0.1000000000D+01
 D   1 1.00       0.000000000000
      0.8000000000D+00  0.1000000000D+01
 ****
     20 0
 S   6 1.00       0.000000000000
      0.5484671660D+04  0.1831074430D-02
      0.8252349460D+03  0.1395017220D-01
      0.1880469580D+03  0.6844507810D-01
      0.5296450000D+02  0.2327143360D+00
      0.1689757040D+02  0.4701928980D+00
      0.5799635340D+01  0.3585208530D+00
 SP   3 1.00       0.000000000000
      0.1553961625D+02 -0.1107775495D+00  0.7087426823D-01
      0.3599933586D+01 -0.1480262627D+00  0.3397528391D+00
      0.1013761750D+01  0.1130767015D+01  0.7271585773D+00
 SP   1 1.00       0.000000000000
      0.2700058226D+00  0.1000000000D+01  0.1000000000D+01
 D   1 1.00       0.000000000000
      0.8000000000D+00  0.1000000000D+01
 ****
     21 0
 S   6 1.00       0.000000000000
      0.5484671660D+04  0.1831074430D-02
      0.8252349460D+03  0.1395017220D-01
      0.1880469580D+03  0.6844507810D-01
      0.5296450000D+02  0.2327143360D+00
      0.1689757040D+02  0.4701928980D+00
      0.5799635340D+01  0.3585208530D+00
 SP   3 1.00       0.000000000000
      0.1553961625D+02 -0.1107775495D+00  0.7087426823D-01
      0.3599933586D+01 -0.1480262627D+00  0.3397528391D+00
      0.1013761750D+01  0.1130767015D+01  0.7271585773D+00
 SP   1 1.00       0.000000000000
      0.2700058226D+00  0.1000000000D+01  0.1000000000D+01
 D   1 1.00       0.000000000000
      0.8000000000D+00  0.1000000000D+01
 ****
     22 0
 S   6 1.00       0.000000000000
      0.5484671660D+04  0.1831074430D-02
      0.8252349460D+03  0.1395017220D-01
      0.1880469580D+03  0.6844507810D-01
      0.5296450000D+02  0.2327143360D+00
      0.1689757040D+02  0.4701928980D+00
      0.5799635340D+01  0.3585208530D+00
 SP   3 1.00       0.000000000000
      0.1553961625D+02 -0.1107775495D+00  0.7087426823D-01
      0.3599933586D+01 -0.1480262627D+00  0.3397528391D+00
      0.1013761750D+01  0.1130767015D+01  0.7271585773D+00
 SP   1 1.00       0.000000000000
      0.2700058226D+00  0.1000000000D+01  0.1000000000D+01
 D   1 1.00       0.000000000000
      0.8000000000D+00  0.1000000000D+01
 ****
     23 0
 S   6 1.00       0.000000000000
      0.5484671660D+04  0.1831074430D-02
      0.8252349460D+03  0.1395017220D-01
      0.1880469580D+03  0.6844507810D-01
      0.5296450000D+02  0.2327143360D+00
      0.1689757040D+02  0.4701928980D+00
      0.5799635340D+01  0.3585208530D+00
 SP   3 1.00       0.000000000000
      0.1553961625D+02 -0.1107775495D+00  0.7087426823D-01
      0.3599933586D+01 -0.1480262627D+00  0.3397528391D+00
      0.1013761750D+01  0.1130767015D+01  0.7271585773D+00
 SP   1 1.00       0.000000000000
      0.2700058226D+00  0.1000000000D+01  0.1000000000D+01
 D   1 1.00       0.000000000000
      0.8000000000D+00  0.1000000000D+01
 ****
     24 0
 S   6 1.00       0.000000000000
      0.5484671660D+04  0.1831074430D-02
      0.8252349460D+03  0.1395017220D-01
      0.1880469580D+03  0.6844507810D-01
      0.5296450000D+02  0.2327143360D+00
      0.1689757040D+02  0.4701928980D+00
      0.5799635340D+01  0.3585208530D+00
 SP   3 1.00       0.000000000000
      0.1553961625D+02 -0.1107775495D+00  0.7087426823D-01
      0.3599933586D+01 -0.1480262627D+00  0.3397528391D+00
      0.1013761750D+01  0.1130767015D+01  0.7271585773D+00
 SP   1 1.00       0.000000000000
      0.2700058226D+00  0.1000000000D+01  0.1000000000D+01
 D   1 1.00       0.000000000000
      0.8000000000D+00  0.1000000000D+01
 ****
     25 0
 S   3 1.00       0.000000000000
      0.1873113696D+02  0.3349460434D-01
      0.2825394365D+01  0.2347269535D+00
      0.6401216923D+00  0.8137573261D+00
 S   1 1.00       0.000000000000
      0.1612777588D+00  0.1000000000D+01
 P   1 1.00       0.000000000000
      0.1100000000D+01  0.1000000000D+01
 ****

   303 basis functions,   580 primitive gaussians,   303 cartesian basis functions
    73 alpha electrons       72 beta electrons
       nuclear repulsion energy      1608.7956696645 Hartrees.
 NAtoms=   25 NActive=   25 NUniq=   25 SFac= 1.00D+00 NAtFMM=   60 NAOKFM=F Big=F
 ------------------------------------------------------------------------------
 Polarizable Continuum Model (PCM)
 =================================
 Model                : PCM.
 Atomic radii         : UFF (Universal Force Field).
 Polarization charges : Total charges.
 Charge compensation  : None.
 Solution method      : On-the-fly selection.
 Cavity type          : Scaled VdW (van der Waals Surface) (Alpha=1.100).
 Cavity algorithm     : GePol (No added spheres)
                        Default sphere list used, NSphG=   25.
                        Lebedev-Laikov grids with approx.  5.0 points / Ang**2.
                        Smoothing algorithm: York/Karplus (Gamma=1.0000).
                        Polarization charges: spherical gaussians, with
                                              point-specific exponents (IZeta= 3).
                        Self-potential: point-specific (ISelfS= 7).
                        Self-field    : sphere-specific E.n sum rule (ISelfD= 2).
 Solvent              : Water, Eps=  78.355300 Eps(inf)=   1.777849
 ------------------------------------------------------------------------------
 ExpMin= 9.98D-02 ExpMax= 1.94D+04 ExpMxC= 2.91D+03 IAcc=3 IRadAn=         5 AccDes= 0.00D+00
 Harris functional with IExCor=  402 and IRadAn=       5 diagonalized for initial guess.
 HarFok:  IExCor=  402 AccDes= 0.00D+00 IRadAn=         5 IDoV= 1 UseB2=F ITyADJ=14
 ICtDFT=  3500011 ScaDFX=  1.000000  1.000000  1.000000  1.000000
 FoFCou: FMM=F IPFlag=           0 FMFlag=      100000 FMFlg1=           0
         NFxFlg=           0 DoJE=T BraDBF=F KetDBF=T FulRan=T
         wScrn=  0.000000 ICntrl=       500 IOpCl=  0 I1Cent=   200000004 NGrid=           0
         NMat0=    1 NMatS0=      1 NMatT0=    0 NMatD0=    1 NMtDS0=    0 NMtDT0=    0
 Petite list used in FoFCou.
 Initial guess <Sx>= 0.0000 <Sy>= 0.0000 <Sz>= 0.5000 <S**2>= 0.7500 S= 0.5000
 Inv3:  Mode=1 IEnd=    14335788.
 Iteration    1 A*A^-1 deviation from unit magnitude is 8.88D-15 for    917.
 Iteration    1 A*A^-1 deviation from orthogonality  is 6.32D-15 for   2052    532.
 Iteration    1 A^-1*A deviation from unit magnitude is 8.66D-15 for    917.
 Iteration    1 A^-1*A deviation from orthogonality  is 5.93D-15 for   2067   1388.
 Restarting incremental Fock formation.
 Error on total polarization charges =  0.00822
 SCF Done:  E(UB3LYP) =  -1535.96368192     A.U. after   28 cycles
            NFock= 28  Conv=0.45D-08     -V/T= 2.0068
 <Sx>= 0.0000 <Sy>= 0.0000 <Sz>= 0.5000 <S**2>= 0.7612 S= 0.5056
 <L.S>= 0.000000000000E+00
 Annihilation of the first spin contaminant:
 S**2 before annihilation     0.7612,   after     0.7501

 **********************************************************************

            Population analysis using the SCF density.

 **********************************************************************

 Orbital symmetries:
 Alpha Orbitals:
       Occupied  (A) (A) (A) (A) (A) (A) (A) (A) (A) (A) (A) (A)
                 (A) (A) (A) (A) (A) (A) (A) (A) (A) (A) (A) (A)
                 (A) (A) (A) (A) (A) (A) (A) (A) (A) (A) (A) (A)
                 (A) (A) (A) (A) (A) (A) (A) (A) (A) (A) (A) (A)
                 (A) (A) (A) (A) (A) (A) (A) (A) (A) (A) (A) (A)
                 (A) (A) (A) (A) (A) (A) (A) (A) (A) (A) (A) (A)
                 (A)
       Virtual   (A) (A) (A) (A) (A) (A) (A) (A) (A) (A) (A) (A)
                 (A) (A) (A) (A) (A) (A) (A) (A) (A) (A) (A) (A)
                 (A) (A) (A) (A) (A) (A) (A) (A) (A) (A) (A) (A)
                 (A) (A) (A) (A) (A) (A) (A) (A) (A) (A) (A) (A)
                 (A) (A) (A) (A) (A) (A) (A) (A) (A) (A) (A) (A)
                 (A) (A) (A) (A) (A) (A) (A) (A) (A) (A) (A) (A)
                 (A) (A) (A) (A) (A) (A) (A) (A) (A) (A) (A) (A)
                 (A) (A) (A) (A) (A) (A) (A) (A) (A) (A) (A) (A)
                 (A) (A) (A) (A) (A) (A) (A) (A) (A) (A) (A) (A)
                 (A) (A) (A) (A) (A) (A) (A) (A) (A) (A) (A) (A)
                 (A) (A) (A) (A) (A) (A) (A) (A) (A) (A) (A) (A)
                 (A) (A) (A) (A) (A) (A) (A) (A) (A) (A) (A) (A)
                 (A) (A) (A) (A) (A) (A) (A) (A) (A) (A) (A) (A)
                 (A) (A) (A) (A) (A) (A) (A) (A) (A) (A) (A) (A)
                 (A) (A) (A) (A) (A) (A) (A) (A) (A) (A) (A) (A)
                 (A) (A) (A) (A) (A) (A) (A) (A) (A) (A) (A) (A)
                 (A) (A) (A) (A) (A) (A) (A) (A) (A) (A) (A) (A)
                 (A) (A) (A) (A) (A) (A) (A) (A) (A) (A) (A) (A)
                 (A) (A) (A) (A) (A) (A) (A) (A) (A) (A) (A) (A)
                 (A) (A)
 Beta  Orbitals:
       Occupied  (A) (A) (A) (A) (A) (A) (A) (A) (A) (A) (A) (A)
                 (A) (A) (A) (A) (A) (A) (A) (A) (A) (A) (A) (A)
                 (A) (A) (A) (A) (A) (A) (A) (A) (A) (A) (A) (A)
                 (A) (A) (A) (A) (A) (A) (A) (A) (A) (A) (A) (A)
                 (A) (A) (A) (A) (A) (A) (A) (A) (A) (A) (A) (A)
                 (A) (A) (A) (A) (A) (A) (A) (A) (A) (A) (A) (A)
       Virtual   (A) (A) (A) (A) (A) (A) (A) (A) (A) (A) (A) (A)
                 (A) (A) (A) (A) (A) (A) (A) (A) (A) (A) (A) (A)
                 (A) (A) (A) (A) (A) (A) (A) (A) (A) (A) (A) (A)
                 (A) (A) (A) (A) (A) (A) (A) (A) (A) (A) (A) (A)
                 (A) (A) (A) (A) (A) (A) (A) (A) (A) (A) (A) (A)
                 (A) (A) (A) (A) (A) (A) (A) (A) (A) (A) (A) (A)
                 (A) (A) (A) (A) (A) (A) (A) (A) (A) (A) (A) (A)
                 (A) (A) (A) (A) (A) (A) (A) (A) (A) (A) (A) (A)
                 (A) (A) (A) (A) (A) (A) (A) (A) (A) (A) (A) (A)
                 (A) (A) (A) (A) (A) (A) (A) (A) (A) (A) (A) (A)
                 (A) (A) (A) (A) (A) (A) (A) (A) (A) (A) (A) (A)
                 (A) (A) (A) (A) (A) (A) (A) (A) (A) (A) (A) (A)
                 (A) (A) (A) (A) (A) (A) (A) (A) (A) (A) (A) (A)
                 (A) (A) (A) (A) (A) (A) (A) (A) (A) (A) (A) (A)
                 (A) (A) (A) (A) (A) (A) (A) (A) (A) (A) (A) (A)
                 (A) (A) (A) (A) (A) (A) (A) (A) (A) (A) (A) (A)
                 (A) (A) (A) (A) (A) (A) (A) (A) (A) (A) (A) (A)
                 (A) (A) (A) (A) (A) (A) (A) (A) (A) (A) (A) (A)
                 (A) (A) (A) (A) (A) (A) (A) (A) (A) (A) (A) (A)
                 (A) (A) (A)
 The electronic state is 2-A.
 Alpha  occ. eigenvalues --  -77.17301 -77.14172 -19.13531 -19.13254 -19.13216
 Alpha  occ. eigenvalues --  -19.13116 -19.11693 -19.05373 -19.05013 -14.32578
 Alpha  occ. eigenvalues --  -10.21940 -10.21441 -10.21113 -10.19471 -10.19330
 Alpha  occ. eigenvalues --  -10.19008 -10.17715  -6.62153  -6.59004  -4.78486
 Alpha  occ. eigenvalues --   -4.78459  -4.78410  -4.75496  -4.75239  -4.75174
 Alpha  occ. eigenvalues --   -1.02254  -0.99869  -0.97934  -0.94031  -0.93698
 Alpha  occ. eigenvalues --   -0.93117  -0.91343  -0.87216  -0.80425  -0.76646
 Alpha  occ. eigenvalues --   -0.71516  -0.62840  -0.61910  -0.58054  -0.53136
 Alpha  occ. eigenvalues --   -0.51127  -0.50791  -0.48196  -0.47194  -0.45765
 Alpha  occ. eigenvalues --   -0.44479  -0.42223  -0.40914  -0.40588  -0.40312
 Alpha  occ. eigenvalues --   -0.39122  -0.38622  -0.37747  -0.36465  -0.35775
 Alpha  occ. eigenvalues --   -0.34780  -0.34616  -0.33680  -0.33502  -0.32779
 Alpha  occ. eigenvalues --   -0.29782  -0.29429  -0.28746  -0.28524  -0.28303
 Alpha  occ. eigenvalues --   -0.27361  -0.26764  -0.26008  -0.24947  -0.24245
 Alpha  occ. eigenvalues --   -0.22892  -0.21803  -0.21260
 Alpha virt. eigenvalues --   -0.01676  -0.00155   0.08979   0.10518   0.11966
 Alpha virt. eigenvalues --    0.12663   0.13076   0.13822   0.15324   0.16480
 Alpha virt. eigenvalues --    0.17029   0.17265   0.18542   0.19203   0.19744
 Alpha virt. eigenvalues --    0.21684   0.22967   0.23244   0.25173   0.26283
 Alpha virt. eigenvalues --    0.26792   0.28064   0.28728   0.32530   0.33249
 Alpha virt. eigenvalues --    0.34680   0.35715   0.37614   0.40312   0.41729
 Alpha virt. eigenvalues --    0.42152   0.43543   0.44196   0.44764   0.46958
 Alpha virt. eigenvalues --    0.48522   0.53114   0.55539   0.57055   0.57746
 Alpha virt. eigenvalues --    0.58899   0.60208   0.60673   0.61209   0.62151
 Alpha virt. eigenvalues --    0.63008   0.64903   0.66350   0.66873   0.67440
 Alpha virt. eigenvalues --    0.68082   0.71206   0.72826   0.74405   0.76453
 Alpha virt. eigenvalues --    0.78914   0.79681   0.80537   0.81179   0.82332
 Alpha virt. eigenvalues --    0.82995   0.84920   0.86061   0.86152   0.87050
 Alpha virt. eigenvalues --    0.87946   0.88683   0.89174   0.91178   0.91719
 Alpha virt. eigenvalues --    0.93439   0.94898   0.96558   0.97270   0.98667
 Alpha virt. eigenvalues --    0.98781   1.01095   1.01496   1.02340   1.03704
 Alpha virt. eigenvalues --    1.04642   1.05426   1.06790   1.08030   1.09151
 Alpha virt. eigenvalues --    1.10141   1.10682   1.11651   1.12455   1.12787
 Alpha virt. eigenvalues --    1.15240   1.17206   1.17356   1.18494   1.19648
 Alpha virt. eigenvalues --    1.21876   1.23559   1.23996   1.24946   1.26544
 Alpha virt. eigenvalues --    1.27337   1.30371   1.32245   1.34060   1.35256
 Alpha virt. eigenvalues --    1.38931   1.39471   1.41607   1.43964   1.44585
 Alpha virt. eigenvalues --    1.44916   1.47612   1.48566   1.53321   1.55058
 Alpha virt. eigenvalues --    1.55718   1.57216   1.61258   1.63752   1.66028
 Alpha virt. eigenvalues --    1.68073   1.71954   1.73152   1.74616   1.76688
 Alpha virt. eigenvalues --    1.78135   1.78431   1.79084   1.80060   1.81103
 Alpha virt. eigenvalues --    1.81598   1.82161   1.83341   1.84809   1.85436
 Alpha virt. eigenvalues --    1.86108   1.87024   1.87572   1.88785   1.90699
 Alpha virt. eigenvalues --    1.90892   1.91643   1.91983   1.94706   1.94888
 Alpha virt. eigenvalues --    1.97875   1.98137   1.99296   2.01640   2.02805
 Alpha virt. eigenvalues --    2.04359   2.06246   2.08072   2.10533   2.11647
 Alpha virt. eigenvalues --    2.12103   2.14025   2.15785   2.19178   2.21414
 Alpha virt. eigenvalues --    2.23791   2.25863   2.26791   2.29085   2.30031
 Alpha virt. eigenvalues --    2.31828   2.32749   2.33935   2.35963   2.37506
 Alpha virt. eigenvalues --    2.38908   2.40245   2.42874   2.43271   2.44852
 Alpha virt. eigenvalues --    2.49116   2.51390   2.51905   2.53483   2.53888
 Alpha virt. eigenvalues --    2.55243   2.59846   2.62267   2.63641   2.66702
 Alpha virt. eigenvalues --    2.67670   2.68860   2.69474   2.70385   2.72797
 Alpha virt. eigenvalues --    2.76064   2.77983   2.78836   2.80174   2.82020
 Alpha virt. eigenvalues --    2.83292   2.86754   2.87706   2.88907   2.99559
 Alpha virt. eigenvalues --    3.00810   3.01431   3.08407   3.18940   3.24330
 Alpha virt. eigenvalues --    3.28062   3.33354   3.40351   3.46182   3.46362
 Alpha virt. eigenvalues --    3.49068   3.51478   3.56667   3.61389   3.80134
 Alpha virt. eigenvalues --    3.80688   3.81036   3.87983   3.92809   4.04635
 Alpha virt. eigenvalues --    4.08885   4.12703   4.19129   4.23831   4.25320
 Alpha virt. eigenvalues --    4.35703   4.38585   4.48833   4.69098   4.77801
  Beta  occ. eigenvalues --  -77.17331 -77.14171 -19.13493 -19.12293 -19.12290
  Beta  occ. eigenvalues --  -19.12271 -19.11684 -19.05342 -19.05001 -14.32577
  Beta  occ. eigenvalues --  -10.21923 -10.21441 -10.21113 -10.19470 -10.19330
  Beta  occ. eigenvalues --  -10.19008 -10.17718  -6.62192  -6.59003  -4.78544
  Beta  occ. eigenvalues --   -4.78517  -4.78439  -4.75496  -4.75236  -4.75174
  Beta  occ. eigenvalues --   -1.01492  -0.98980  -0.97624  -0.93121  -0.91559
  Beta  occ. eigenvalues --   -0.91476  -0.91253  -0.87158  -0.80419  -0.76640
  Beta  occ. eigenvalues --   -0.71474  -0.62771  -0.61910  -0.58005  -0.52681
  Beta  occ. eigenvalues --   -0.51090  -0.50703  -0.48155  -0.46773  -0.45637
  Beta  occ. eigenvalues --   -0.44397  -0.41894  -0.40713  -0.39150  -0.39102
  Beta  occ. eigenvalues --   -0.38975  -0.38527  -0.37604  -0.36308  -0.35546
  Beta  occ. eigenvalues --   -0.34607  -0.34489  -0.32988  -0.29859  -0.29597
  Beta  occ. eigenvalues --   -0.28870  -0.28285  -0.27568  -0.27293  -0.27259
  Beta  occ. eigenvalues --   -0.26300  -0.25871  -0.24902  -0.24115  -0.22780
  Beta  occ. eigenvalues --   -0.21606  -0.21193
  Beta virt. eigenvalues --   -0.17066  -0.01674  -0.00150   0.09217   0.10861
  Beta virt. eigenvalues --    0.12051   0.12788   0.13474   0.13877   0.15350
  Beta virt. eigenvalues --    0.16619   0.17348   0.17499   0.18666   0.19467
  Beta virt. eigenvalues --    0.19774   0.21825   0.23071   0.23359   0.25318
  Beta virt. eigenvalues --    0.26565   0.27085   0.28251   0.28874   0.32562
  Beta virt. eigenvalues --    0.33383   0.34746   0.35726   0.37630   0.40330
  Beta virt. eigenvalues --    0.41730   0.42170   0.43570   0.44200   0.44780
  Beta virt. eigenvalues --    0.47035   0.48540   0.53129   0.55678   0.57070
  Beta virt. eigenvalues --    0.57826   0.58926   0.60250   0.60681   0.61239
  Beta virt. eigenvalues --    0.62206   0.63076   0.64910   0.66356   0.66952
  Beta virt. eigenvalues --    0.67443   0.68111   0.71291   0.72894   0.74438
  Beta virt. eigenvalues --    0.76473   0.79328   0.79807   0.80796   0.81330
  Beta virt. eigenvalues --    0.82538   0.83083   0.84963   0.86117   0.86262
  Beta virt. eigenvalues --    0.87178   0.88093   0.88783   0.89237   0.91212
  Beta virt. eigenvalues --    0.91841   0.93488   0.95044   0.96921   0.97496
  Beta virt. eigenvalues --    0.98913   0.99029   1.01460   1.02353   1.03370
  Beta virt. eigenvalues --    1.04539   1.05084   1.06119   1.06916   1.08649
  Beta virt. eigenvalues --    1.09551   1.10505   1.10823   1.11856   1.12761
  Beta virt. eigenvalues --    1.13072   1.15424   1.17375   1.17630   1.18817
  Beta virt. eigenvalues --    1.19892   1.22244   1.23749   1.24205   1.25112
  Beta virt. eigenvalues --    1.26770   1.27538   1.30576   1.32486   1.34110
  Beta virt. eigenvalues --    1.35459   1.38968   1.39698   1.41699   1.44201
  Beta virt. eigenvalues --    1.44757   1.45317   1.47659   1.48669   1.53736
  Beta virt. eigenvalues --    1.55309   1.55845   1.57403   1.61431   1.63847
  Beta virt. eigenvalues --    1.66235   1.68199   1.72175   1.73392   1.75043
  Beta virt. eigenvalues --    1.77996   1.78387   1.79149   1.80113   1.81441
  Beta virt. eigenvalues --    1.82046   1.82639   1.83258   1.84096   1.85361
  Beta virt. eigenvalues --    1.86416   1.87235   1.87481   1.88353   1.88960
  Beta virt. eigenvalues --    1.90913   1.90994   1.91724   1.92199   1.95172
  Beta virt. eigenvalues --    1.95308   1.97934   1.98403   1.99420   2.01976
  Beta virt. eigenvalues --    2.02867   2.04436   2.06472   2.08154   2.10756
  Beta virt. eigenvalues --    2.11781   2.12220   2.14040   2.15877   2.19476
  Beta virt. eigenvalues --    2.21649   2.23836   2.26760   2.27366   2.29620
  Beta virt. eigenvalues --    2.30268   2.32174   2.32812   2.33967   2.36015
  Beta virt. eigenvalues --    2.37621   2.38936   2.40280   2.42909   2.43294
  Beta virt. eigenvalues --    2.44918   2.49166   2.51427   2.51927   2.53499
  Beta virt. eigenvalues --    2.53914   2.55272   2.59889   2.62289   2.64198
  Beta virt. eigenvalues --    2.66726   2.67679   2.68893   2.69536   2.70456
  Beta virt. eigenvalues --    2.72823   2.76152   2.78214   2.78885   2.80887
  Beta virt. eigenvalues --    2.82628   2.83494   2.86778   2.87734   2.88930
  Beta virt. eigenvalues --    2.99657   3.00856   3.01483   3.08412   3.18941
  Beta virt. eigenvalues --    3.24330   3.28063   3.33362   3.40352   3.46185
  Beta virt. eigenvalues --    3.46363   3.49055   3.51484   3.56665   3.61385
  Beta virt. eigenvalues --    3.80254   3.81868   3.82034   3.88151   3.93257
  Beta virt. eigenvalues --    4.05483   4.08956   4.12717   4.19157   4.23849
  Beta virt. eigenvalues --    4.25384   4.35709   4.38623   4.48841   4.69110
  Beta virt. eigenvalues --    4.77802
     Alpha Molecular Orbital Coefficients:
                           1         2         3         4         5
                           O         O         O         O         O
     Eigenvalues --   -77.17301 -77.14172 -19.13531 -19.13254 -19.13216
   1 1   C  1S         -0.00000  -0.00002   0.00000   0.00001  -0.00001
   2        2S          0.00003  -0.00006   0.00004   0.00000  -0.00001
   3        2PX         0.00004   0.00002  -0.00005  -0.00002   0.00005
   4        2PY        -0.00001  -0.00003   0.00001   0.00000   0.00001
   5        2PZ        -0.00001  -0.00002   0.00005  -0.00001   0.00002
   6        3S         -0.00040   0.00058   0.00049  -0.00026  -0.00032
   7        3PX         0.00002   0.00029   0.00014   0.00021  -0.00101
   8        3PY         0.00001  -0.00010   0.00015  -0.00043  -0.00013
   9        3PZ        -0.00029   0.00009   0.00004   0.00001   0.00014
  10        4XX        -0.00006  -0.00003   0.00002   0.00002  -0.00007
  11        4YY        -0.00001  -0.00006   0.00002   0.00003  -0.00001
  12        4ZZ        -0.00003  -0.00004  -0.00006  -0.00001  -0.00000
  13        4XY         0.00001   0.00001   0.00001   0.00004  -0.00000
  14        4XZ         0.00001   0.00001   0.00000   0.00002  -0.00004
  15        4YZ         0.00001  -0.00002   0.00001   0.00001   0.00001
  16 2   H  1S          0.00001  -0.00000  -0.00001  -0.00000  -0.00006
  17        2S         -0.00021  -0.00015  -0.00009   0.00031   0.00030
  18        3PX         0.00002   0.00000   0.00001  -0.00002   0.00003
  19        3PY         0.00001  -0.00003  -0.00002  -0.00001  -0.00000
  20        3PZ        -0.00001  -0.00002  -0.00000   0.00003   0.00002
  21 3   H  1S          0.00002  -0.00002  -0.00001   0.00006  -0.00002
  22        2S         -0.00012  -0.00005   0.00015  -0.00040  -0.00018
  23        3PX         0.00003  -0.00001  -0.00002   0.00004   0.00004
  24        3PY        -0.00001   0.00001   0.00001  -0.00003  -0.00001
  25        3PZ        -0.00000  -0.00000   0.00004   0.00001  -0.00001
  26 4   C  1S         -0.00005  -0.00003   0.00001  -0.00003  -0.00002
  27        2S         -0.00014  -0.00002   0.00016  -0.00013  -0.00013
  28        2PX        -0.00003   0.00001   0.00009  -0.00001   0.00004
  29        2PY        -0.00002   0.00005  -0.00009   0.00004  -0.00006
  30        2PZ         0.00001  -0.00000   0.00024  -0.00000   0.00002
  31        3S          0.00139   0.00076  -0.00185   0.00083   0.00054
  32        3PX        -0.00036  -0.00005  -0.00053  -0.00014  -0.00084
  33        3PY        -0.00034   0.00043   0.00042  -0.00046   0.00055
  34        3PZ        -0.00004   0.00006  -0.00088  -0.00061  -0.00009
  35        4XX        -0.00010  -0.00008   0.00005   0.00001   0.00003
  36        4YY        -0.00009  -0.00015   0.00009  -0.00002  -0.00002
  37        4ZZ        -0.00008  -0.00007   0.00033  -0.00005  -0.00005
  38        4XY        -0.00001   0.00000  -0.00000   0.00003   0.00003
  39        4XZ        -0.00001  -0.00000   0.00005  -0.00001   0.00002
  40        4YZ        -0.00000   0.00001  -0.00009   0.00004  -0.00001
  41 5   O  1S          0.00001  -0.00000   0.99270  -0.00028  -0.00003
  42        2S          0.00002  -0.00001   0.02569  -0.00014  -0.00000
  43        2PX         0.00002   0.00001  -0.00079   0.00002  -0.00001
  44        2PY         0.00000  -0.00002  -0.00002   0.00002  -0.00001
  45        2PZ         0.00001   0.00002  -0.00038   0.00004  -0.00000
  46        3S         -0.00027  -0.00011   0.01285   0.00053   0.00007
  47        3PX         0.00003  -0.00002   0.00005  -0.00009   0.00013
  48        3PY        -0.00000  -0.00007   0.00025   0.00001   0.00001
  49        3PZ         0.00019   0.00006  -0.00043  -0.00022  -0.00006
  50        4XX         0.00003  -0.00005  -0.00827  -0.00010  -0.00001
  51        4YY        -0.00001   0.00001  -0.00822  -0.00009  -0.00001
  52        4ZZ         0.00000  -0.00002  -0.00831  -0.00008   0.00003
  53        4XY         0.00003   0.00000   0.00001   0.00001   0.00000
  54        4XZ        -0.00001   0.00001  -0.00003   0.00003  -0.00002
  55        4YZ        -0.00001  -0.00001   0.00003  -0.00001   0.00001
  56 6   H  1S         -0.00001   0.00003   0.00045  -0.00008   0.00003
  57        2S         -0.00021  -0.00012  -0.00166   0.00023  -0.00003
  58        3PX        -0.00001   0.00000   0.00002   0.00002   0.00001
  59        3PY        -0.00001  -0.00002  -0.00002  -0.00001   0.00001
  60        3PZ        -0.00003   0.00002   0.00005  -0.00001   0.00001
  61 7   C  1S         -0.00001   0.00002  -0.00001   0.00000  -0.00002
  62        2S         -0.00002   0.00009  -0.00009   0.00001  -0.00009
  63        2PX         0.00002  -0.00002  -0.00001   0.00000   0.00004
  64        2PY        -0.00000  -0.00000  -0.00002   0.00001   0.00000
  65        2PZ        -0.00000   0.00002   0.00003  -0.00000   0.00000
  66        3S          0.00001  -0.00054   0.00097  -0.00005   0.00071
  67        3PX        -0.00043   0.00051   0.00037   0.00000  -0.00101
  68        3PY        -0.00008   0.00026  -0.00009   0.00012  -0.00012
  69        3PZ         0.00006  -0.00031   0.00053  -0.00004  -0.00024
  70        4XX         0.00001   0.00002  -0.00001  -0.00000   0.00001
  71        4YY        -0.00001   0.00004   0.00000   0.00000  -0.00004
  72        4ZZ        -0.00002   0.00003   0.00003   0.00000  -0.00003
  73        4XY         0.00000   0.00002   0.00002  -0.00001   0.00000
  74        4XZ         0.00000  -0.00001  -0.00003  -0.00000   0.00002
  75        4YZ         0.00000  -0.00000  -0.00002  -0.00000   0.00000
  76 8   C  1S         -0.00000  -0.00000   0.00001   0.00000  -0.00000
  77        2S         -0.00001  -0.00002  -0.00003   0.00001  -0.00001
  78        2PX         0.00000  -0.00001  -0.00011  -0.00000  -0.00001
  79        2PY         0.00000   0.00000   0.00005   0.00000   0.00000
  80        2PZ        -0.00000  -0.00000   0.00002   0.00001  -0.00001
  81        3S          0.00009   0.00028   0.00024  -0.00005   0.00033
  82        3PX         0.00008  -0.00024   0.00096  -0.00001   0.00030
  83        3PY         0.00003   0.00005  -0.00054   0.00003   0.00015
  84        3PZ        -0.00006  -0.00013   0.00066  -0.00013  -0.00008
  85        4XX        -0.00001   0.00002   0.00010  -0.00000  -0.00001
  86        4YY        -0.00000  -0.00000   0.00001   0.00000  -0.00000
  87        4ZZ         0.00000  -0.00000   0.00001   0.00001   0.00000
  88        4XY         0.00000  -0.00000   0.00003  -0.00000   0.00000
  89        4XZ        -0.00000   0.00001  -0.00001  -0.00000  -0.00001
  90        4YZ        -0.00001  -0.00000   0.00003   0.00000  -0.00001
  91 9   C  1S         -0.00000   0.00001   0.00000   0.00000  -0.00000
  92        2S         -0.00001   0.00004   0.00003   0.00001  -0.00001
  93        2PX        -0.00000  -0.00001   0.00001  -0.00001  -0.00000
  94        2PY        -0.00000   0.00002   0.00000  -0.00000  -0.00000
  95        2PZ         0.00000   0.00001  -0.00001   0.00000   0.00000
  96        3S          0.00020  -0.00043  -0.00029   0.00000   0.00032
  97        3PX         0.00002   0.00016  -0.00015   0.00014   0.00019
  98        3PY        -0.00013   0.00009   0.00007   0.00004  -0.00010
  99        3PZ         0.00017  -0.00019  -0.00021  -0.00006   0.00021
 100        4XX        -0.00000   0.00002  -0.00001   0.00002  -0.00000
 101        4YY         0.00001   0.00002   0.00000   0.00001   0.00000
 102        4ZZ         0.00000   0.00002  -0.00001   0.00001   0.00001
 103        4XY         0.00000  -0.00001  -0.00001  -0.00000   0.00000
 104        4XZ        -0.00000   0.00001   0.00001   0.00001   0.00000
 105        4YZ        -0.00001   0.00002   0.00002  -0.00000  -0.00001
 106 10  C  1S         -0.00000   0.00000   0.00001  -0.00000  -0.00000
 107        2S         -0.00000   0.00001   0.00007  -0.00000   0.00000
 108        2PX         0.00000   0.00000   0.00003   0.00000   0.00001
 109        2PY        -0.00000   0.00000  -0.00002  -0.00000  -0.00000
 110        2PZ         0.00000  -0.00000  -0.00001  -0.00000   0.00001
 111        3S         -0.00006   0.00004  -0.00083   0.00001  -0.00027
 112        3PX         0.00002  -0.00007   0.00061  -0.00006   0.00010
 113        3PY         0.00001  -0.00006   0.00032  -0.00002   0.00001
 114        3PZ         0.00001   0.00007   0.00005   0.00005   0.00002
 115        4XX         0.00000  -0.00000  -0.00004   0.00000  -0.00000
 116        4YY        -0.00000   0.00000   0.00001  -0.00000  -0.00000
 117        4ZZ        -0.00000  -0.00000  -0.00000  -0.00000  -0.00000
 118        4XY        -0.00000   0.00000  -0.00003  -0.00000  -0.00000
 119        4XZ         0.00000  -0.00000  -0.00001  -0.00000   0.00000
 120        4YZ        -0.00000   0.00000   0.00001  -0.00000  -0.00000
 121 11  H  1S          0.00000  -0.00001   0.00013  -0.00001   0.00002
 122        2S          0.00003  -0.00004  -0.00058   0.00010   0.00009
 123        3PX        -0.00000   0.00001  -0.00006   0.00001  -0.00001
 124        3PY         0.00000  -0.00000  -0.00004   0.00001  -0.00000
 125        3PZ         0.00000   0.00000   0.00000  -0.00000  -0.00000
 126 12  N  1S          0.00000  -0.00000   0.00000   0.00000   0.00000
 127        2S          0.00000  -0.00000   0.00000   0.00001   0.00002
 128        2PX         0.00000   0.00000  -0.00000  -0.00000   0.00000
 129        2PY        -0.00000  -0.00000  -0.00000   0.00000   0.00000
 130        2PZ         0.00000  -0.00001  -0.00000  -0.00000  -0.00000
 131        3S         -0.00008   0.00004  -0.00003  -0.00007  -0.00025
 132        3PX         0.00000   0.00000  -0.00013   0.00006   0.00008
 133        3PY         0.00003   0.00000   0.00004  -0.00000   0.00003
 134        3PZ        -0.00003   0.00006  -0.00006   0.00005  -0.00001
 135        4XX         0.00000  -0.00001   0.00001  -0.00000   0.00001
 136        4YY         0.00000  -0.00001   0.00000   0.00000   0.00001
 137        4ZZ         0.00000  -0.00000  -0.00000   0.00001   0.00001
 138        4XY        -0.00000  -0.00000   0.00001  -0.00000   0.00000
 139        4XZ         0.00000  -0.00000  -0.00000  -0.00000  -0.00000
 140        4YZ        -0.00000  -0.00000   0.00001  -0.00000  -0.00000
 141 13  H  1S          0.00000   0.00003  -0.00001   0.00001   0.00001
 142        2S          0.00011  -0.00007  -0.00007  -0.00007   0.00008
 143        3PX         0.00000  -0.00001  -0.00000  -0.00001  -0.00000
 144        3PY        -0.00000   0.00000  -0.00000   0.00000   0.00000
 145        3PZ         0.00000  -0.00000   0.00000  -0.00000  -0.00000
 146 14  C  1S          0.00000  -0.00000  -0.00000  -0.00000  -0.00000
 147        2S          0.00000  -0.00000  -0.00001  -0.00000  -0.00000
 148        2PX         0.00000   0.00000   0.00000  -0.00000   0.00000
 149        2PY         0.00000  -0.00000  -0.00000   0.00000   0.00000
 150        2PZ        -0.00000   0.00000   0.00001   0.00000  -0.00000
 151        3S          0.00003   0.00005  -0.00003   0.00002   0.00004
 152        3PX        -0.00001  -0.00001  -0.00012  -0.00000  -0.00007
 153        3PY         0.00000  -0.00004   0.00007  -0.00004  -0.00000
 154        3PZ        -0.00002   0.00004  -0.00026   0.00004  -0.00002
 155        4XX         0.00000  -0.00000   0.00000  -0.00000   0.00000
 156        4YY         0.00000  -0.00000   0.00001   0.00000  -0.00000
 157        4ZZ         0.00000  -0.00000  -0.00000  -0.00000   0.00000
 158        4XY         0.00000   0.00000   0.00001   0.00000   0.00000
 159        4XZ         0.00000  -0.00000   0.00000  -0.00000  -0.00000
 160        4YZ        -0.00000   0.00000  -0.00001   0.00000  -0.00000
 161 15  H  1S          0.00000  -0.00001   0.00002  -0.00000   0.00001
 162        2S          0.00001  -0.00002   0.00001  -0.00001   0.00001
 163        3PX        -0.00000   0.00000  -0.00002   0.00000  -0.00000
 164        3PY        -0.00000   0.00000  -0.00002  -0.00000  -0.00000
 165        3PZ        -0.00000  -0.00000  -0.00001  -0.00000  -0.00000
 166 16  H  1S         -0.00000  -0.00000   0.00002  -0.00000   0.00000
 167        2S          0.00000   0.00000   0.00005   0.00000   0.00003
 168        3PX         0.00000  -0.00000   0.00000   0.00000   0.00000
 169        3PY         0.00000   0.00000   0.00000   0.00000  -0.00000
 170        3PZ         0.00000  -0.00000   0.00001  -0.00000  -0.00000
 171 17  P  1S         -0.00003   0.99625   0.00000   0.00000  -0.00000
 172        2S          0.00001   0.01417   0.00003   0.00001  -0.00001
 173        2PX        -0.00000   0.00002  -0.00001   0.00000  -0.00000
 174        2PY        -0.00001  -0.00002   0.00000   0.00000  -0.00001
 175        2PZ         0.00000   0.00002   0.00001  -0.00001   0.00001
 176        3S          0.00016  -0.02719   0.00019   0.00003  -0.00008
 177        3PX         0.00002  -0.00003   0.00008  -0.00001   0.00003
 178        3PY         0.00006   0.00016  -0.00013  -0.00004   0.00003
 179        3PZ        -0.00000  -0.00004  -0.00002   0.00004  -0.00002
 180        4S         -0.00039   0.00285  -0.00048  -0.00003  -0.00042
 181        4PX         0.00015  -0.00001   0.00017   0.00036   0.00015
 182        4PY         0.00012  -0.00029   0.00028  -0.00003   0.00011
 183        4PZ         0.00006  -0.00014  -0.00015  -0.00015   0.00021
 184        5XX        -0.00003   0.00945   0.00004   0.00001   0.00003
 185        5YY        -0.00008   0.00941   0.00003   0.00001  -0.00004
 186        5ZZ        -0.00004   0.00946  -0.00003   0.00002  -0.00003
 187        5XY        -0.00005   0.00001  -0.00000   0.00000   0.00000
 188        5XZ        -0.00000  -0.00001   0.00000  -0.00000   0.00005
 189        5YZ        -0.00001   0.00000   0.00002  -0.00005   0.00004
 190 18  P  1S          0.99625   0.00004   0.00000   0.00001   0.00001
 191        2S          0.01417   0.00000  -0.00001  -0.00006  -0.00005
 192        2PX         0.00002   0.00001   0.00000  -0.00001   0.00001
 193        2PY         0.00001   0.00001   0.00000   0.00003  -0.00002
 194        2PZ         0.00001  -0.00000  -0.00001   0.00001   0.00002
 195        3S         -0.02714   0.00012   0.00001   0.00059   0.00069
 196        3PX        -0.00016  -0.00006   0.00002   0.00009  -0.00001
 197        3PY        -0.00006  -0.00006   0.00002  -0.00017   0.00014
 198        3PZ        -0.00003   0.00004   0.00011  -0.00008  -0.00016
 199        4S          0.00250  -0.00023   0.00035  -0.00292  -0.00325
 200        4PX         0.00003   0.00003  -0.00003  -0.00090   0.00051
 201        4PY         0.00014  -0.00022   0.00014   0.00163  -0.00158
 202        4PZ         0.00002  -0.00000   0.00031   0.00064   0.00106
 203        5XX         0.00940  -0.00005   0.00002  -0.00017  -0.00011
 204        5YY         0.00944  -0.00008  -0.00003   0.00002  -0.00011
 205        5ZZ         0.00944  -0.00002   0.00001  -0.00020  -0.00019
 206        5XY        -0.00002  -0.00004  -0.00001  -0.00004  -0.00009
 207        5XZ        -0.00003  -0.00002  -0.00002  -0.00003   0.00011
 208        5YZ        -0.00001  -0.00001  -0.00001   0.00016  -0.00015
 209 19  O  1S          0.00000   0.00000  -0.00002  -0.00001  -0.00002
 210        2S         -0.00000  -0.00006  -0.00010  -0.00005  -0.00012
 211        2PX        -0.00001  -0.00014  -0.00001  -0.00001   0.00002
 212        2PY        -0.00001   0.00006   0.00002  -0.00001   0.00003
 213        2PZ         0.00001   0.00009  -0.00000  -0.00000   0.00002
 214        3S          0.00005   0.00064   0.00048   0.00028   0.00051
 215        3PX         0.00002   0.00035   0.00008   0.00007  -0.00003
 216        3PY         0.00003  -0.00012  -0.00014   0.00002  -0.00016
 217        3PZ        -0.00002  -0.00021   0.00000  -0.00001  -0.00013
 218        4XX         0.00000  -0.00011  -0.00007  -0.00003  -0.00009
 219        4YY        -0.00001  -0.00002  -0.00006  -0.00003  -0.00008
 220        4ZZ         0.00002  -0.00003  -0.00008  -0.00002  -0.00010
 221        4XY        -0.00001   0.00010  -0.00002  -0.00001   0.00001
 222        4XZ         0.00001   0.00011   0.00001  -0.00000  -0.00000
 223        4YZ        -0.00001  -0.00006  -0.00001  -0.00001   0.00002
 224 20  O  1S         -0.00000  -0.00002  -0.00003  -0.00002  -0.00000
 225        2S         -0.00002  -0.00004  -0.00016   0.00002   0.00000
 226        2PX         0.00001   0.00004  -0.00002   0.00001  -0.00000
 227        2PY         0.00001   0.00001   0.00002   0.00001   0.00001
 228        2PZ         0.00000   0.00001  -0.00005  -0.00001   0.00000
 229        3S          0.00006   0.00075   0.00087  -0.00014  -0.00001
 230        3PX        -0.00003  -0.00032  -0.00001  -0.00005   0.00002
 231        3PY        -0.00005  -0.00008  -0.00024  -0.00003  -0.00005
 232        3PZ        -0.00000  -0.00013   0.00022   0.00006   0.00000
 233        4XX        -0.00001  -0.00018  -0.00011   0.00002  -0.00001
 234        4YY        -0.00001  -0.00003  -0.00007   0.00003   0.00001
 235        4ZZ        -0.00001  -0.00009  -0.00012   0.00001   0.00000
 236        4XY         0.00000  -0.00004   0.00001   0.00001   0.00000
 237        4XZ         0.00000  -0.00011  -0.00003  -0.00000  -0.00001
 238        4YZ        -0.00000  -0.00005  -0.00001  -0.00001  -0.00000
 239 21  O  1S         -0.00000   0.00002   0.00001   0.00000  -0.00001
 240        2S         -0.00003  -0.00001   0.00002   0.00005  -0.00011
 241        2PX         0.00000   0.00004   0.00000   0.00002   0.00003
 242        2PY        -0.00000   0.00004   0.00000  -0.00001   0.00001
 243        2PZ         0.00000  -0.00016   0.00001   0.00000   0.00000
 244        3S          0.00013   0.00039  -0.00011  -0.00023   0.00050
 245        3PX        -0.00002  -0.00008  -0.00003  -0.00007  -0.00012
 246        3PY        -0.00002  -0.00005  -0.00001   0.00004  -0.00008
 247        3PZ         0.00001   0.00038  -0.00001  -0.00003   0.00007
 248        4XX        -0.00001   0.00006   0.00003   0.00004  -0.00008
 249        4YY        -0.00001   0.00003   0.00001   0.00003  -0.00009
 250        4ZZ        -0.00001  -0.00014   0.00002   0.00003  -0.00007
 251        4XY        -0.00000  -0.00003   0.00000   0.00000   0.00001
 252        4XZ        -0.00000   0.00006  -0.00001  -0.00001  -0.00001
 253        4YZ        -0.00000   0.00011   0.00000   0.00000  -0.00001
 254 22  O  1S         -0.00000   0.00001  -0.00003  -0.00097  -0.00070
 255        2S         -0.00005   0.00001   0.00002  -0.00009  -0.00013
 256        2PX        -0.00004   0.00001  -0.00000  -0.00001   0.00003
 257        2PY        -0.00000   0.00001   0.00000   0.00007  -0.00006
 258        2PZ         0.00012  -0.00001  -0.00005  -0.00001  -0.00000
 259        3S          0.00067  -0.00004  -0.00001   0.00043   0.00059
 260        3PX         0.00015  -0.00003   0.00013   0.00013  -0.00008
 261        3PY         0.00000  -0.00000   0.00000  -0.00033   0.00034
 262        3PZ        -0.00038   0.00004   0.00028  -0.00020  -0.00025
 263        4XX        -0.00001   0.00003  -0.00002   0.00000  -0.00008
 264        4YY         0.00001   0.00002   0.00002  -0.00005  -0.00006
 265        4ZZ        -0.00021   0.00001  -0.00000   0.00000  -0.00003
 266        4XY        -0.00001  -0.00001  -0.00001  -0.00000   0.00003
 267        4XZ         0.00010   0.00001   0.00003  -0.00002  -0.00001
 268        4YZ         0.00003  -0.00000   0.00001   0.00001  -0.00002
 269 23  O  1S         -0.00000  -0.00000   0.00023   0.99267   0.00361
 270        2S         -0.00008  -0.00000  -0.00005   0.02595   0.00004
 271        2PX         0.00003  -0.00001  -0.00000  -0.00018   0.00001
 272        2PY        -0.00014  -0.00001  -0.00002   0.00062  -0.00001
 273        2PZ        -0.00007   0.00000  -0.00000   0.00030   0.00006
 274        3S          0.00078  -0.00002   0.00025   0.01234   0.00042
 275        3PX        -0.00010   0.00003   0.00001   0.00007  -0.00012
 276        3PY         0.00039   0.00004   0.00008   0.00040   0.00029
 277        3PZ         0.00020  -0.00002  -0.00001   0.00025  -0.00022
 278        4XX        -0.00000  -0.00000  -0.00005  -0.00823  -0.00005
 279        4YY        -0.00019   0.00001  -0.00004  -0.00826  -0.00002
 280        4ZZ        -0.00004  -0.00001  -0.00006  -0.00816  -0.00007
 281        4XY         0.00005  -0.00000  -0.00000   0.00001   0.00001
 282        4XZ         0.00002  -0.00000   0.00001   0.00003  -0.00002
 283        4YZ        -0.00011   0.00000   0.00001  -0.00005   0.00000
 284 24  O  1S          0.00000  -0.00000   0.00004  -0.00363   0.99266
 285        2S         -0.00005  -0.00000   0.00003  -0.00013   0.02590
 286        2PX        -0.00009   0.00001   0.00000  -0.00001   0.00035
 287        2PY         0.00010   0.00001   0.00000   0.00002  -0.00048
 288        2PZ        -0.00009  -0.00001   0.00002   0.00005   0.00039
 289        3S          0.00061   0.00009  -0.00012   0.00019   0.01253
 290        3PX         0.00024  -0.00004  -0.00001   0.00016   0.00041
 291        3PY        -0.00028  -0.00006  -0.00001  -0.00026  -0.00019
 292        3PZ         0.00025   0.00003  -0.00009  -0.00016   0.00029
 293        4XX        -0.00005  -0.00001   0.00001   0.00005  -0.00825
 294        4YY        -0.00006  -0.00001   0.00003   0.00002  -0.00826
 295        4ZZ        -0.00006   0.00001   0.00001  -0.00000  -0.00821
 296        4XY         0.00010  -0.00002  -0.00001  -0.00001  -0.00001
 297        4XZ        -0.00009  -0.00000  -0.00001  -0.00000  -0.00004
 298        4YZ         0.00010  -0.00001   0.00001  -0.00003   0.00006
 299 25  H  1S         -0.00002  -0.00007  -0.00009  -0.00003  -0.00001
 300        2S          0.00000  -0.00018  -0.00080   0.00005  -0.00005
 301        3PX        -0.00000  -0.00003   0.00011  -0.00001   0.00000
 302        3PY        -0.00001  -0.00000   0.00013  -0.00001  -0.00000
 303        3PZ         0.00000  -0.00002   0.00006  -0.00000   0.00001
                           6         7         8         9        10
                           O         O         O         O         O
     Eigenvalues --   -19.13116 -19.11693 -19.05373 -19.05013 -14.32578
   1 1   C  1S          0.00000  -0.00004  -0.00000   0.00001   0.00000
   2        2S          0.00002  -0.00016  -0.00000   0.00002  -0.00000
   3        2PX         0.00000   0.00002  -0.00001  -0.00001   0.00001
   4        2PY        -0.00000  -0.00008  -0.00002   0.00007  -0.00000
   5        2PZ        -0.00003  -0.00001  -0.00004   0.00001   0.00000
   6        3S         -0.00017   0.00077  -0.00050   0.00027  -0.00005
   7        3PX         0.00031  -0.00006   0.00015  -0.00000   0.00001
   8        3PY         0.00015   0.00068  -0.00008  -0.00054   0.00002
   9        3PZ        -0.00003   0.00020   0.00003   0.00022  -0.00006
  10        4XX        -0.00001  -0.00005  -0.00002   0.00003   0.00002
  11        4YY        -0.00000  -0.00006   0.00002   0.00004   0.00000
  12        4ZZ        -0.00002  -0.00005  -0.00001   0.00003  -0.00000
  13        4XY        -0.00001  -0.00001  -0.00000   0.00002  -0.00000
  14        4XZ         0.00002  -0.00001   0.00001  -0.00000   0.00001
  15        4YZ         0.00001   0.00002  -0.00002   0.00000   0.00000
  16 2   H  1S          0.00004  -0.00008   0.00009   0.00006   0.00000
  17        2S         -0.00007  -0.00003   0.00005   0.00002  -0.00005
  18        3PX        -0.00001  -0.00000  -0.00002   0.00001  -0.00000
  19        3PY        -0.00001  -0.00003   0.00003   0.00001  -0.00000
  20        3PZ         0.00000  -0.00000  -0.00001  -0.00000  -0.00000
  21 3   H  1S          0.00001   0.00003   0.00001  -0.00006   0.00000
  22        2S          0.00020   0.00027   0.00007  -0.00028   0.00000
  23        3PX        -0.00001   0.00001  -0.00001  -0.00002  -0.00000
  24        3PY         0.00001   0.00002   0.00000  -0.00002   0.00000
  25        3PZ        -0.00000  -0.00001  -0.00000  -0.00000   0.00000
  26 4   C  1S         -0.00004  -0.00002  -0.00003  -0.00002  -0.00000
  27        2S         -0.00022  -0.00007  -0.00020  -0.00011  -0.00001
  28        2PX         0.00002  -0.00000  -0.00003   0.00004  -0.00000
  29        2PY         0.00004   0.00001  -0.00001  -0.00001  -0.00000
  30        2PZ         0.00003   0.00002   0.00005  -0.00005   0.00000
  31        3S          0.00153   0.00046   0.00117   0.00048   0.00006
  32        3PX        -0.00043  -0.00012   0.00045  -0.00043   0.00003
  33        3PY        -0.00069   0.00040   0.00058   0.00052   0.00000
  34        3PZ         0.00030   0.00020  -0.00052   0.00010  -0.00000
  35        4XX        -0.00004  -0.00004  -0.00003  -0.00001  -0.00000
  36        4YY        -0.00006   0.00002   0.00002   0.00003   0.00000
  37        4ZZ        -0.00000  -0.00002  -0.00004  -0.00004  -0.00000
  38        4XY        -0.00000   0.00001   0.00001  -0.00001  -0.00000
  39        4XZ         0.00004   0.00001  -0.00002   0.00001  -0.00000
  40        4YZ        -0.00000  -0.00003  -0.00001   0.00001  -0.00000
  41 5   O  1S          0.00003  -0.00002   0.00000  -0.00003   0.00000
  42        2S          0.00001  -0.00006   0.00000  -0.00011   0.00000
  43        2PX        -0.00002  -0.00000  -0.00000   0.00002   0.00000
  44        2PY         0.00003  -0.00002   0.00003  -0.00004  -0.00000
  45        2PZ        -0.00004  -0.00003  -0.00000   0.00001  -0.00000
  46        3S          0.00004   0.00026   0.00006   0.00042  -0.00002
  47        3PX        -0.00017   0.00010  -0.00006  -0.00004  -0.00001
  48        3PY        -0.00023   0.00016  -0.00014   0.00016   0.00000
  49        3PZ         0.00044   0.00012   0.00001  -0.00010   0.00001
  50        4XX         0.00004  -0.00003   0.00003  -0.00011   0.00000
  51        4YY         0.00002  -0.00002   0.00000  -0.00006   0.00000
  52        4ZZ        -0.00006  -0.00006   0.00001  -0.00008   0.00000
  53        4XY         0.00003   0.00001   0.00002  -0.00003   0.00000
  54        4XZ        -0.00007  -0.00000   0.00002  -0.00001   0.00000
  55        4YZ         0.00000   0.00003   0.00001   0.00000   0.00000
  56 6   H  1S         -0.00017  -0.00003   0.00003  -0.00006  -0.00000
  57        2S         -0.00075   0.00009  -0.00014   0.00015  -0.00001
  58        3PX        -0.00002  -0.00000  -0.00002   0.00003  -0.00000
  59        3PY        -0.00001  -0.00002   0.00001  -0.00000  -0.00000
  60        3PZ         0.00004  -0.00002  -0.00000   0.00000   0.00000
  61 7   C  1S          0.00000   0.00001  -0.00002   0.00001   0.00001
  62        2S          0.00002   0.00002  -0.00007   0.00003   0.00008
  63        2PX        -0.00000   0.00001   0.00003  -0.00002  -0.00004
  64        2PY        -0.00000   0.00004  -0.00006   0.00002  -0.00001
  65        2PZ        -0.00001   0.00003   0.00002   0.00001   0.00000
  66        3S         -0.00022  -0.00060   0.00022  -0.00003  -0.00088
  67        3PX         0.00012  -0.00000  -0.00019   0.00025  -0.00037
  68        3PY         0.00003  -0.00021   0.00047   0.00025  -0.00025
  69        3PZ         0.00003  -0.00009  -0.00042  -0.00021   0.00025
  70        4XX        -0.00000   0.00001  -0.00003   0.00003  -0.00008
  71        4YY         0.00001   0.00004  -0.00004   0.00002  -0.00001
  72        4ZZ         0.00000   0.00001  -0.00007   0.00003   0.00001
  73        4XY         0.00000  -0.00000   0.00001  -0.00001  -0.00004
  74        4XZ        -0.00000  -0.00001  -0.00002  -0.00000   0.00002
  75        4YZ         0.00000   0.00004  -0.00000  -0.00001  -0.00001
  76 8   C  1S         -0.00000  -0.00002  -0.00000   0.00000  -0.00001
  77        2S         -0.00000  -0.00006  -0.00003   0.00001  -0.00001
  78        2PX         0.00000   0.00000  -0.00001  -0.00001  -0.00001
  79        2PY        -0.00001  -0.00001   0.00001   0.00000  -0.00001
  80        2PZ         0.00000  -0.00002  -0.00001   0.00001   0.00001
  81        3S          0.00001   0.00047   0.00048   0.00004   0.00016
  82        3PX        -0.00002   0.00000  -0.00006  -0.00011   0.00021
  83        3PY         0.00003   0.00020   0.00007   0.00001   0.00018
  84        3PZ        -0.00004  -0.00001  -0.00024  -0.00009  -0.00018
  85        4XX         0.00000  -0.00002   0.00000   0.00001  -0.00003
  86        4YY        -0.00000  -0.00001  -0.00001   0.00001  -0.00001
  87        4ZZ        -0.00000  -0.00003   0.00002   0.00000  -0.00002
  88        4XY        -0.00000  -0.00001  -0.00000  -0.00000   0.00000
  89        4XZ         0.00000   0.00000   0.00001   0.00000  -0.00001
  90        4YZ         0.00000  -0.00002  -0.00001   0.00000   0.00000
  91 9   C  1S          0.00000  -0.00000  -0.00002   0.00001   0.00004
  92        2S          0.00001  -0.00003  -0.00004   0.00004   0.00033
  93        2PX        -0.00000   0.00000   0.00005  -0.00002   0.00018
  94        2PY         0.00000  -0.00002  -0.00003   0.00003   0.00004
  95        2PZ         0.00000   0.00001  -0.00001   0.00001   0.00000
  96        3S         -0.00001   0.00019   0.00018  -0.00047   0.00033
  97        3PX         0.00001  -0.00019   0.00023   0.00010  -0.00061
  98        3PY         0.00000   0.00006   0.00025  -0.00000  -0.00041
  99        3PZ        -0.00002   0.00011  -0.00010  -0.00022   0.00039
 100        4XX         0.00000  -0.00001  -0.00005   0.00002  -0.00025
 101        4YY         0.00000  -0.00001  -0.00003   0.00002   0.00001
 102        4ZZ        -0.00000   0.00000  -0.00004   0.00002   0.00002
 103        4XY         0.00000  -0.00001  -0.00001  -0.00001  -0.00000
 104        4XZ        -0.00000  -0.00002   0.00001   0.00001  -0.00009
 105        4YZ         0.00000   0.00001  -0.00002   0.00001  -0.00006
 106 10  C  1S          0.00000   0.00000   0.00000  -0.00000   0.00000
 107        2S          0.00000   0.00001   0.00001  -0.00000   0.00006
 108        2PX        -0.00000   0.00000   0.00000   0.00000  -0.00000
 109        2PY         0.00000   0.00000   0.00000   0.00000  -0.00003
 110        2PZ        -0.00000  -0.00000  -0.00000  -0.00000   0.00004
 111        3S         -0.00002  -0.00017  -0.00019   0.00008  -0.00077
 112        3PX        -0.00001   0.00010  -0.00002  -0.00006  -0.00014
 113        3PY        -0.00004  -0.00006  -0.00008  -0.00001  -0.00022
 114        3PZ         0.00004   0.00003   0.00013   0.00002   0.00027
 115        4XX         0.00000  -0.00000  -0.00000  -0.00000   0.00002
 116        4YY         0.00000   0.00000   0.00000  -0.00000  -0.00004
 117        4ZZ         0.00000  -0.00000   0.00000  -0.00000  -0.00008
 118        4XY         0.00000   0.00001  -0.00000  -0.00000   0.00000
 119        4XZ        -0.00000   0.00000  -0.00000  -0.00000   0.00001
 120        4YZ         0.00000   0.00000   0.00000  -0.00000   0.00005
 121 11  H  1S         -0.00000  -0.00002  -0.00000  -0.00000   0.00002
 122        2S          0.00002  -0.00001   0.00002   0.00001   0.00012
 123        3PX         0.00000   0.00001   0.00000   0.00000   0.00000
 124        3PY         0.00000  -0.00001   0.00000   0.00000   0.00000
 125        3PZ        -0.00000  -0.00001   0.00001   0.00000  -0.00000
 126 12  N  1S          0.00000  -0.00000   0.00001  -0.00001   0.99275
 127        2S          0.00000  -0.00001   0.00003  -0.00002   0.03464
 128        2PX        -0.00000  -0.00000  -0.00002   0.00001  -0.00083
 129        2PY        -0.00000   0.00001   0.00001  -0.00001  -0.00081
 130        2PZ        -0.00000   0.00000  -0.00000  -0.00001   0.00088
 131        3S         -0.00001   0.00006  -0.00029   0.00016   0.00364
 132        3PX         0.00001  -0.00002   0.00020  -0.00007   0.00037
 133        3PY         0.00000  -0.00004  -0.00006   0.00002   0.00039
 134        3PZ         0.00000  -0.00004   0.00006   0.00006  -0.00043
 135        4XX         0.00000  -0.00000   0.00002  -0.00001  -0.00797
 136        4YY         0.00000  -0.00000   0.00003  -0.00002  -0.00813
 137        4ZZ         0.00000  -0.00001   0.00002  -0.00001  -0.00805
 138        4XY        -0.00000   0.00001   0.00001  -0.00001  -0.00002
 139        4XZ        -0.00000   0.00000   0.00000  -0.00001   0.00011
 140        4YZ         0.00000  -0.00000  -0.00000  -0.00000  -0.00006
 141 13  H  1S         -0.00000  -0.00004  -0.00000   0.00003  -0.00001
 142        2S          0.00000   0.00006  -0.00017  -0.00008   0.00001
 143        3PX        -0.00000   0.00001  -0.00002  -0.00001  -0.00006
 144        3PY         0.00000  -0.00000   0.00001   0.00001   0.00001
 145        3PZ         0.00000   0.00000  -0.00001  -0.00000  -0.00004
 146 14  C  1S          0.00000  -0.00000  -0.00000  -0.00000   0.00004
 147        2S         -0.00000   0.00000  -0.00001  -0.00001   0.00035
 148        2PX        -0.00000   0.00000   0.00000   0.00000  -0.00004
 149        2PY        -0.00000  -0.00000  -0.00000  -0.00000   0.00010
 150        2PZ         0.00000   0.00000   0.00001   0.00000  -0.00016
 151        3S          0.00004   0.00004   0.00011  -0.00001   0.00022
 152        3PX        -0.00001  -0.00004  -0.00012   0.00002  -0.00029
 153        3PY        -0.00001   0.00003  -0.00008  -0.00002  -0.00042
 154        3PZ         0.00001  -0.00000   0.00007   0.00001   0.00051
 155        4XX         0.00000  -0.00000  -0.00000  -0.00000   0.00000
 156        4YY        -0.00000   0.00000  -0.00000  -0.00000  -0.00005
 157        4ZZ         0.00000  -0.00000  -0.00001   0.00000  -0.00017
 158        4XY         0.00000  -0.00000   0.00000   0.00000   0.00010
 159        4XZ        -0.00000  -0.00000   0.00000  -0.00000  -0.00013
 160        4YZ         0.00000  -0.00000   0.00000  -0.00000   0.00008
 161 15  H  1S         -0.00000   0.00000  -0.00000  -0.00000   0.00003
 162        2S         -0.00002  -0.00002  -0.00003  -0.00000  -0.00004
 163        3PX         0.00000  -0.00001   0.00000   0.00000  -0.00001
 164        3PY         0.00000   0.00000   0.00000   0.00000   0.00001
 165        3PZ         0.00000   0.00000  -0.00000  -0.00000  -0.00001
 166 16  H  1S         -0.00000   0.00000   0.00001  -0.00000  -0.00001
 167        2S         -0.00000   0.00001   0.00004  -0.00000  -0.00001
 168        3PX         0.00000  -0.00000   0.00000  -0.00000   0.00006
 169        3PY         0.00000  -0.00000   0.00000   0.00000  -0.00002
 170        3PZ        -0.00000  -0.00000  -0.00000  -0.00000   0.00005
 171 17  P  1S         -0.00000   0.00001   0.00002   0.00001   0.00000
 172        2S         -0.00004   0.00002  -0.00005  -0.00007   0.00000
 173        2PX        -0.00001  -0.00006  -0.00000   0.00002  -0.00000
 174        2PY        -0.00000   0.00000   0.00000   0.00000   0.00000
 175        2PZ         0.00000  -0.00004   0.00002  -0.00001   0.00000
 176        3S         -0.00012   0.00010   0.00082   0.00064   0.00001
 177        3PX         0.00006   0.00011   0.00003  -0.00015  -0.00000
 178        3PY         0.00006  -0.00012  -0.00003   0.00001  -0.00000
 179        3PZ        -0.00004   0.00008  -0.00018   0.00013  -0.00000
 180        4S          0.00082  -0.00294  -0.00358  -0.00279  -0.00006
 181        4PX        -0.00022  -0.00166  -0.00100   0.00176  -0.00004
 182        4PY        -0.00032   0.00019   0.00012  -0.00041   0.00002
 183        4PZ         0.00019  -0.00033   0.00198  -0.00157   0.00001
 184        5XX        -0.00004   0.00021  -0.00025  -0.00009  -0.00000
 185        5YY        -0.00003   0.00008  -0.00024  -0.00021  -0.00000
 186        5ZZ        -0.00005   0.00008  -0.00007  -0.00020  -0.00000
 187        5XY        -0.00001   0.00000   0.00005  -0.00006  -0.00000
 188        5XZ         0.00000   0.00020  -0.00005  -0.00008  -0.00000
 189        5YZ         0.00003   0.00005  -0.00007   0.00005   0.00000
 190 18  P  1S          0.00001   0.00000  -0.00000  -0.00000  -0.00000
 191        2S         -0.00004   0.00001  -0.00002  -0.00001  -0.00000
 192        2PX         0.00002  -0.00000   0.00000   0.00000   0.00000
 193        2PY        -0.00000   0.00000   0.00001   0.00000   0.00000
 194        2PZ        -0.00003   0.00000  -0.00001   0.00000  -0.00000
[...]
 197         V                 1.750430          2.849131
 198         V                 1.779956          2.992508
 199         V                 1.783871          2.993913
 200         V                 1.791488          2.964023
 201         V                 1.801134          2.950177
 202         V                 1.814411          2.932257
 203         V                 1.820464          3.050969
 204         V                 1.826394          3.061129
 205         V                 1.832580          2.913091
 206         V                 1.840961          2.938752
 207         V                 1.853614          3.011385
 208         V                 1.864162          2.982165
 209         V                 1.872352          3.129203
 210         V                 1.874812          3.040459
 211         V                 1.883528          3.036632
 212         V                 1.889601          2.927951
 213         V                 1.909132          3.045104
 214         V                 1.909943          3.170253
 215         V                 1.917244          3.277608
 216         V                 1.921989          2.996886
 217         V                 1.951716          3.118960
 218         V                 1.953085          3.232373
 219         V                 1.979345          3.124314
 220         V                 1.984034          3.306040
 221         V                 1.994202          3.138660
 222         V                 2.019759          3.293339
 223         V                 2.028672          3.331723
 224         V                 2.044359          3.351534
 225         V                 2.064721          3.603556
 226         V                 2.081545          3.449540
 227         V                 2.107564          3.381443
 228         V                 2.117815          3.326257
 229         V                 2.122196          3.447054
 230         V                 2.140398          3.373056
 231         V                 2.158765          3.534529
 232         V                 2.194762          3.452750
 233         V                 2.216490          3.442591
 234         V                 2.238358          3.470810
 235         V                 2.267598          3.567982
 236         V                 2.273660          3.547235
 237         V                 2.296199          3.552462
 238         V                 2.302680          3.438774
 239         V                 2.321744          3.580361
 240         V                 2.328124          3.511153
 241         V                 2.339669          3.612698
 242         V                 2.360155          3.592538
 243         V                 2.376206          3.660651
 244         V                 2.389361          3.581256
 245         V                 2.402798          3.455346
 246         V                 2.429094          3.778060
 247         V                 2.432940          3.760506
 248         V                 2.449181          3.874447
 249         V                 2.491657          3.900118
 250         V                 2.514270          3.861162
 251         V                 2.519274          3.710212
 252         V                 2.534989          4.460254
 253         V                 2.539143          3.734083
 254         V                 2.552718          3.807145
 255         V                 2.598888          3.862357
 256         V                 2.622885          4.002452
 257         V                 2.641981          4.320643
 258         V                 2.667264          3.718366
 259         V                 2.676792          4.047311
 260         V                 2.688929          3.976719
 261         V                 2.695362          3.915107
 262         V                 2.704555          3.773159
 263         V                 2.728235          4.043544
 264         V                 2.761522          4.169957
 265         V                 2.782144          4.145165
 266         V                 2.788848          4.356903
 267         V                 2.808872          4.717723
 268         V                 2.826276          4.647698
 269         V                 2.834937          4.634963
 270         V                 2.867785          4.385637
 271         V                 2.877341          4.191580
 272         V                 2.889299          4.578419
 273         V                 2.996574          4.452840
 274         V                 3.008557          4.414349
 275         V                 3.014834          4.579876
 276         V                 3.084116          4.635468
 277         V                 3.189410          5.068316
 278         V                 3.243303          4.905560
 279         V                 3.280634          4.972277
 280         V                 3.333624          5.110767
 281         V                 3.403515          5.191153
 282         V                 3.461846          5.318020
 283         V                 3.463635          6.591533
 284         V                 3.490553          7.509520
 285         V                 3.514841          5.692608
 286         V                 3.566652          8.096694
 287         V                 3.613852          9.965140
 288         V                 3.802539          6.320424
 289         V                 3.818679         10.139617
 290         V                 3.820337         10.195883
 291         V                 3.881511          9.867989
 292         V                 3.932571         10.548451
 293         V                 4.054830         10.744824
 294         V                 4.089557         10.285995
 295         V                 4.127171         10.172868
 296         V                 4.191573         10.227347
 297         V                 4.238495         10.419193
 298         V                 4.253840         10.434458
 299         V                 4.357087         10.107913
 300         V                 4.386228         10.395210
 301         V                 4.488410         10.155869
 302         V                 4.691097         10.553684
 303         V                 4.778023         10.230422
 Total kinetic energy from orbitals= 1.525581704558D+03
                          Isotropic Fermi Contact Couplings
        Atom                 a.u.       MegaHertz       Gauss      10(-4) cm-1
     1  C(13)             -0.00170      -1.91033      -0.68165      -0.63722
     2  H(1)               0.00003       0.13101       0.04675       0.04370
     3  H(1)               0.00031       1.39992       0.49953       0.46696
     4  C(13)             -0.00429      -4.82262      -1.72083      -1.60865
     5  O(17)              0.00012      -0.07553      -0.02695      -0.02519
     6  H(1)              -0.00028      -1.23901      -0.44211      -0.41329
     7  C(13)              0.00017       0.19332       0.06898       0.06449
     8  C(13)             -0.00007      -0.07575      -0.02703      -0.02527
     9  C(13)             -0.00010      -0.11124      -0.03969      -0.03710
    10  C(13)              0.00001       0.00894       0.00319       0.00298
    11  H(1)               0.00000       0.00686       0.00245       0.00229
    12  N(14)              0.00001       0.00434       0.00155       0.00145
    13  H(1)               0.00000       0.01600       0.00571       0.00534
    14  C(13)             -0.00002      -0.01870      -0.00667      -0.00624
    15  H(1)               0.00000       0.01045       0.00373       0.00349
    16  H(1)               0.00000       0.01570       0.00560       0.00524
    17  P(31)             -0.00019      -0.33989      -0.12128      -0.11338
    18  P(31)             -0.04676     -84.69528     -30.22138     -28.25131
    19  O(17)             -0.00039       0.23856       0.08512       0.07957
    20  O(17)              0.00009      -0.05403      -0.01928      -0.01802
    21  O(17)              0.00098      -0.59204      -0.21125      -0.19748
    22  O(17)              0.02539     -15.39385      -5.49291      -5.13484
    23  O(17)              0.02661     -16.13124      -5.75603      -5.38080
    24  O(17)              0.02658     -16.11417      -5.74994      -5.37511
    25  H(1)              -0.00007      -0.32305      -0.11527      -0.10776
 --------------------------------------------------------
       Center         ----  Spin Dipole Couplings  ----
                      3XX-RR        3YY-RR        3ZZ-RR
 --------------------------------------------------------
     1   Atom        0.004395     -0.002430     -0.001965
     2   Atom        0.002896     -0.001027     -0.001869
     3   Atom        0.008830     -0.004425     -0.004405
     4   Atom       -0.001714      0.013116     -0.011402
     5   Atom       -0.029005      0.060457     -0.031452
     6   Atom        0.013583     -0.008194     -0.005389
     7   Atom        0.002314     -0.001038     -0.001276
     8   Atom        0.001720     -0.000842     -0.000879
     9   Atom        0.001292     -0.000677     -0.000615
    10   Atom        0.000861     -0.000426     -0.000435
    11   Atom        0.001871     -0.001063     -0.000808
    12   Atom        0.000729     -0.000333     -0.000396
    13   Atom        0.000998     -0.000450     -0.000548
    14   Atom        0.000767     -0.000422     -0.000345
    15   Atom        0.000631     -0.000354     -0.000277
    16   Atom        0.000449     -0.000221     -0.000228
    17   Atom       -0.003383      0.011761     -0.008378
    18   Atom        0.018702      0.004166     -0.022868
    19   Atom        0.003895     -0.003388     -0.000507
    20   Atom       -0.008013     -0.005396      0.013409
    21   Atom       -0.015552      0.040515     -0.024963
    22   Atom       -0.370882      0.989242     -0.618359
    23   Atom       -0.565832     -0.487767      1.053599
    24   Atom       -0.366592     -0.185003      0.551595
    25   Atom        0.000419      0.000563     -0.000982
 --------------------------------------------------------
                        XY            XZ            YZ
 --------------------------------------------------------
     1   Atom        0.001948     -0.000289      0.000354
     2   Atom        0.001866     -0.002198     -0.000670
     3   Atom        0.001273     -0.000788      0.000102
     4   Atom        0.017477      0.002415      0.004817
     5   Atom        0.026007      0.006305      0.020061
     6   Atom        0.005304      0.007311      0.002842
     7   Atom        0.000717      0.000146      0.000316
     8   Atom       -0.000009      0.000500     -0.000177
     9   Atom        0.000447     -0.000307     -0.000161
    10   Atom        0.000025      0.000252      0.000070
    11   Atom       -0.000376      0.000984     -0.000008
    12   Atom        0.000199     -0.000224      0.000060
    13   Atom        0.000540     -0.000583     -0.000165
    14   Atom        0.000161      0.000081     -0.000130
    15   Atom       -0.000054      0.000294     -0.000009
    16   Atom        0.000078      0.000043     -0.000001
    17   Atom        0.002046      0.000479     -0.001335
    18   Atom        0.020202      0.006473      0.002669
    19   Atom       -0.011202      0.014363     -0.008805
    20   Atom        0.000053     -0.001565      0.009124
    21   Atom        0.024357      0.000820      0.003742
    22   Atom       -0.615324      0.067535     -0.143467
    23   Atom       -0.180460      0.502101     -0.677332
    24   Atom       -0.404812     -0.657150      0.821979
    25   Atom        0.001896      0.001113      0.000347
 --------------------------------------------------------


 ---------------------------------------------------------------------------------
              Anisotropic Spin Dipole Couplings in Principal Axis System
 ---------------------------------------------------------------------------------

       Atom             a.u.   MegaHertz   Gauss  10(-4) cm-1        Axes

              Baa    -0.0031    -0.416    -0.148    -0.139 -0.2485  0.9049 -0.3456
     1 C(13)  Bbb    -0.0018    -0.244    -0.087    -0.081 -0.0633  0.3409  0.9380
              Bcc     0.0049     0.660     0.235     0.220  0.9666  0.2549 -0.0275
 
              Baa    -0.0027    -1.457    -0.520    -0.486  0.3777 -0.0501  0.9246
     2 H(1)   Bbb    -0.0017    -0.928    -0.331    -0.309 -0.2965  0.9394  0.1721
              Bcc     0.0045     2.385     0.851     0.795  0.8771  0.3392 -0.3400
 
              Baa    -0.0047    -2.497    -0.891    -0.833 -0.1096  0.7879 -0.6060
     3 H(1)   Bbb    -0.0043    -2.303    -0.822    -0.768 -0.0114  0.6087  0.7933
              Bcc     0.0090     4.800     1.713     1.601  0.9939  0.0939 -0.0577
 
              Baa    -0.0136    -1.822    -0.650    -0.608  0.7266 -0.5500  0.4118
     4 C(13)  Bbb    -0.0119    -1.595    -0.569    -0.532 -0.4194  0.1198  0.8999
              Bcc     0.0255     3.417     1.219     1.140  0.5443  0.8265  0.1436
 
              Baa    -0.0367     2.658     0.948     0.887  0.7705 -0.0755 -0.6329
     5 O(17)  Bbb    -0.0350     2.533     0.904     0.845  0.5835 -0.3161  0.7481
              Bcc     0.0717    -5.191    -1.852    -1.732  0.2566  0.9457  0.1995
 
              Baa    -0.0100    -5.335    -1.904    -1.780 -0.0591  0.8889 -0.4543
     6 H(1)   Bbb    -0.0075    -3.975    -1.418    -1.326 -0.3892  0.3986  0.8305
              Bcc     0.0174     9.310     3.322     3.106  0.9193  0.2259  0.3224
 
              Baa    -0.0015    -0.204    -0.073    -0.068  0.0894 -0.6349  0.7674
     7 C(13)  Bbb    -0.0010    -0.128    -0.046    -0.043 -0.1922  0.7450  0.6388
              Bcc     0.0025     0.332     0.118     0.111  0.9773  0.2046  0.0554
 
              Baa    -0.0011    -0.146    -0.052    -0.049 -0.1421  0.5697  0.8095
     8 C(13)  Bbb    -0.0007    -0.097    -0.035    -0.032  0.1171  0.8217 -0.5577
              Bcc     0.0018     0.243     0.087     0.081  0.9829 -0.0155  0.1835
 
              Baa    -0.0008    -0.111    -0.040    -0.037 -0.1095  0.8607  0.4972
     9 C(13)  Bbb    -0.0006    -0.083    -0.030    -0.028  0.2454 -0.4613  0.8526
              Bcc     0.0014     0.194     0.069     0.065  0.9632  0.2154 -0.1607
 
              Baa    -0.0005    -0.070    -0.025    -0.023 -0.1399 -0.5495  0.8237
    10 C(13)  Bbb    -0.0004    -0.052    -0.018    -0.017 -0.1249  0.8351  0.5358
              Bcc     0.0009     0.122     0.044     0.041  0.9823  0.0279  0.1854
 
              Baa    -0.0012    -0.654    -0.233    -0.218 -0.2998 -0.6558  0.6929
    11 H(1)   Bbb    -0.0010    -0.537    -0.192    -0.179 -0.1257  0.7471  0.6527
              Bcc     0.0022     1.192     0.425     0.397  0.9457 -0.1086  0.3064
 
              Baa    -0.0005    -0.019    -0.007    -0.006  0.2350 -0.5545  0.7983
    12 N(14)  Bbb    -0.0003    -0.012    -0.004    -0.004 -0.0322  0.8164  0.5766
              Bcc     0.0008     0.031     0.011     0.010  0.9715  0.1612 -0.1740
 
              Baa    -0.0007    -0.397    -0.142    -0.133  0.3469 -0.1147  0.9309
    13 H(1)   Bbb    -0.0006    -0.333    -0.119    -0.111 -0.2415  0.9481  0.2068
              Bcc     0.0014     0.730     0.261     0.244  0.9063  0.2965 -0.3012
 
              Baa    -0.0005    -0.073    -0.026    -0.024 -0.1343  0.8016  0.5826
    14 C(13)  Bbb    -0.0002    -0.033    -0.012    -0.011  0.0275 -0.5847  0.8108
              Bcc     0.0008     0.106     0.038     0.035  0.9906  0.1249  0.0565
 
              Baa    -0.0004    -0.196    -0.070    -0.065 -0.2687 -0.5086  0.8180
    15 H(1)   Bbb    -0.0004    -0.188    -0.067    -0.063 -0.1024  0.8595  0.5008
              Bcc     0.0007     0.385     0.137     0.128  0.9578 -0.0507  0.2830
 
              Baa    -0.0002    -0.126    -0.045    -0.042 -0.1221  0.6835  0.7196
    16 H(1)   Bbb    -0.0002    -0.120    -0.043    -0.040 -0.0394  0.7211 -0.6917
              Bcc     0.0005     0.246     0.088     0.082  0.9917  0.1128  0.0612
 
              Baa    -0.0085    -1.847    -0.659    -0.616 -0.1226  0.0774  0.9894
    17 P(31)  Bbb    -0.0036    -0.771    -0.275    -0.257  0.9841 -0.1199  0.1313
              Bcc     0.0121     2.618     0.934     0.873  0.1288  0.9898 -0.0615
 
              Baa    -0.0239    -5.158    -1.841    -1.721 -0.1603  0.0216  0.9868
    18 P(31)  Bbb    -0.0099    -2.133    -0.761    -0.712 -0.5574  0.8231 -0.1086
              Bcc     0.0337     7.292     2.602     2.432  0.8146  0.5675  0.1199
 
              Baa    -0.0130     0.939     0.335     0.313  0.7137  0.2245 -0.6635
    19 O(17)  Bbb    -0.0107     0.776     0.277     0.259  0.1806  0.8563  0.4840
              Bcc     0.0237    -1.715    -0.612    -0.572  0.6767 -0.4652  0.5706
 
              Baa    -0.0094     0.680     0.243     0.227 -0.4362  0.8248 -0.3598
    20 O(17)  Bbb    -0.0078     0.563     0.201     0.188  0.8980  0.4243 -0.1163
              Bcc     0.0172    -1.244    -0.444    -0.415 -0.0567  0.3739  0.9258
 
              Baa    -0.0255     1.845     0.658     0.616  0.4899 -0.2284  0.8413
    21 O(17)  Bbb    -0.0243     1.759     0.628     0.587  0.7987 -0.2690 -0.5382
              Bcc     0.0498    -3.604    -1.286    -1.202  0.3493  0.9356  0.0507
 
              Baa    -0.6364    46.049    16.431    15.360 -0.3754 -0.0605  0.9249
    22 O(17)  Bbb    -0.6034    43.659    15.579    14.563  0.8547  0.3636  0.3706
              Bcc     1.2398   -89.708   -32.010   -29.923 -0.3587  0.9296 -0.0848
 
              Baa    -0.7448    53.893    19.230    17.977 -0.2000  0.8972  0.3938
    23 O(17)  Bbb    -0.7053    51.037    18.211    17.024  0.9458  0.2817 -0.1615
              Bcc     1.4501  -104.930   -37.442   -35.001  0.2558 -0.3401  0.9049
 
              Baa    -0.7271    52.610    18.773    17.549  0.4730 -0.6103  0.6354
    24 O(17)  Bbb    -0.6907    49.976    17.833    16.670  0.7865  0.6175  0.0075
              Bcc     1.4177  -102.586   -36.605   -34.219 -0.3969  0.4962  0.7721
 
              Baa    -0.0019    -1.006    -0.359    -0.336  0.6481 -0.4111 -0.6411
    25 H(1)   Bbb    -0.0008    -0.424    -0.151    -0.141  0.3145 -0.6222  0.7169
              Bcc     0.0027     1.430     0.510     0.477  0.6936  0.6662  0.2739
 

 ---------------------------------------------------------------------------------


 Test job not archived.
 1\1\GINC-BATAGIN1\SP\UB3LYP\6-31G(d,p)\C7H8N1O7P2(2-,2)\ORISON\08-Feb-
 2021\0\\#t B3LYP/6-31G(d,p) scrf=(solvent=water) # Gfinput IOP(6/7=3) 
 Pop=hirshfeld Density Test # Units(Ang,Deg)\\ris-1-3dp-opt-g09.log\\-2
 ,2\C,0,0.34401,-0.81685,-0.79732\H,0,0.18502,-0.4238,-1.80609\H,0,0.10
 652,-1.88524,-0.83502\C,0,-0.72798,-0.18407,0.12339\O,0,-0.45089,-0.54
 928,1.50739\H,0,-1.3804,-0.80428,1.79039\C,0,1.79732,-0.64509,-0.42568
 \C,0,2.36088,-1.28439,0.68795\C,0,2.67521,0.11002,-1.21688\C,0,3.71914
 ,-1.13039,0.95998\H,0,1.72703,-1.882,1.33407\N,0,3.98634,0.26637,-0.98
 01\H,0,2.28209,0.62611,-2.09148\C,0,4.49071,-0.34905,0.10016\H,0,4.177
 13,-1.61272,1.81851\H,0,5.55605,-0.21532,0.28196\P,0,-0.67888,1.68546,
 0.08109\P,0,-2.43929,-0.99552,-0.23769\O,0,-1.84705,2.32882,0.81227\O,
 0,0.67663,1.88771,1.06107\O,0,-0.3209,2.20643,-1.30282\O,0,-2.93123,-1
 .14432,1.24251\O,0,-2.13975,-2.35232,-0.90779\O,0,-3.28137,-0.04581,-1
 .10617\H,0,0.61546,1.13242,1.67605\\Version=EM64L-G16RevA.03\State=2-A
 \HF=-1535.9636819\S2=0.761163\S2-1=0.\S2A=0.75008\RMSD=4.472e-09\Dipol
 e=5.1763041,-3.7547423,1.2411206\Quadrupole=-14.2312563,-4.489923,18.7
 211792,-4.1666065,5.6663102,-1.1543092\PG=C01 [X(C7H8N1O7P2)]\\@


 IF THE FACTS DO NOT CONFORM TO THE THEORY, THEY MUST BE DISPOSED OF.
 Job cpu time:       0 days  0 hours 33 minutes 25.8 seconds.
 Elapsed time:       0 days  0 hours  4 minutes 11.2 seconds.
 File lengths (MBytes):  RWF=    169 Int=      0 D2E=      0 Chk=      8 Scr=      1
 Normal termination of Gaussian 16 at Mon Feb  8 15:00:44 2021.
