 Entering Gaussian System, Link 0=g16
 Input=ris-3dp_anion_scf_g09.com
 Output=ris-3dp_anion_scf_g09.log
 Initial command:
 /opt/g16//g16/l1.exe "/home/orison/scrgauss/Gau-14600.inp" -scrdir="/home/orison/scrgauss/"
 Entering Link 1 = /opt/g16//g16/l1.exe PID=     14602.
  
 Copyright (c) 1988,1990,1992,1993,1995,1998,2003,2009,2016,
            Gaussian, Inc.  All Rights Reserved.
  
 This is part of the Gaussian(R) 16 program.  It is based on
 the Gaussian(R) 09 system (copyright 2009, Gaussian, Inc.),
 the Gaussian(R) 03 system (copyright 2003, Gaussian, Inc.),
 the Gaussian(R) 98 system (copyright 1998, Gaussian, Inc.),
 the Gaussian(R) 94 system (copyright 1995, Gaussian, Inc.),
 the Gaussian 92(TM) system (copyright 1992, Gaussian, Inc.),
 the Gaussian 90(TM) system (copyright 1990, Gaussian, Inc.),
 the Gaussian 88(TM) system (copyright 1988, Gaussian, Inc.),
 the Gaussian 86(TM) system (copyright 1986, Carnegie Mellon
 University), and the Gaussian 82(TM) system (copyright 1983,
 Carnegie Mellon University). Gaussian is a federally registered
 trademark of Gaussian, Inc.
  
 This software contains proprietary and confidential information,
 including trade secrets, belonging to Gaussian, Inc.
  
 This software is provided under written license and may be
 used, copied, transmitted, or stored only in accord with that
 written license.
  
 The following legend is applicable only to US Government
 contracts under FAR:
  
                    RESTRICTED RIGHTS LEGEND
  
 Use, reproduction and disclosure by the US Government is
 subject to restrictions as set forth in subparagraphs (a)
 and (c) of the Commercial Computer Software - Restricted
 Rights clause in FAR 52.227-19.
  
 Gaussian, Inc.
 340 Quinnipiac St., Bldg. 40, Wallingford CT 06492
  
  
 ---------------------------------------------------------------
 Warning -- This program may not be used in any manner that
 competes with the business of Gaussian, Inc. or will provide
 assistance to any competitor of Gaussian, Inc.  The licensee
 of this program is prohibited from giving any competitor of
 Gaussian, Inc. access to this program.  By using this program,
 the user acknowledges that Gaussian, Inc. is engaged in the
 business of creating and licensing software in the field of
 computational chemistry and represents and warrants to the
 licensee that it is not a competitor of Gaussian, Inc. and that
 it will not use this program in any manner prohibited above.
 ---------------------------------------------------------------
  

 Cite this work as:
 Gaussian 16, Revision A.03,
 M. J. Frisch, G. W. Trucks, H. B. Schlegel, G. E. Scuseria, 
 M. A. Robb, J. R. Cheeseman, G. Scalmani, V. Barone, 
 G. A. Petersson, H. Nakatsuji, X. Li, M. Caricato, A. V. Marenich, 
 J. Bloino, B. G. Janesko, R. Gomperts, B. Mennucci, H. P. Hratchian, 
 J. V. Ortiz, A. F. Izmaylov, J. L. Sonnenberg, D. Williams-Young, 
 F. Ding, F. Lipparini, F. Egidi, J. Goings, B. Peng, A. Petrone, 
 T. Henderson, D. Ranasinghe, V. G. Zakrzewski, J. Gao, N. Rega, 
 G. Zheng, W. Liang, M. Hada, M. Ehara, K. Toyota, R. Fukuda, 
 J. Hasegawa, M. Ishida, T. Nakajima, Y. Honda, O. Kitao, H. Nakai, 
 T. Vreven, K. Throssell, J. A. Montgomery, Jr., J. E. Peralta, 
 F. Ogliaro, M. J. Bearpark, J. J. Heyd, E. N. Brothers, K. N. Kudin, 
 V. N. Staroverov, T. A. Keith, R. Kobayashi, J. Normand, 
 K. Raghavachari, A. P. Rendell, J. C. Burant, S. S. Iyengar, 
 J. Tomasi, M. Cossi, J. M. Millam, M. Klene, C. Adamo, R. Cammi, 
 J. W. Ochterski, R. L. Martin, K. Morokuma, O. Farkas, 
 J. B. Foresman, and D. J. Fox, Gaussian, Inc., Wallingford CT, 2016.
 
 ******************************************
 Gaussian 16:  EM64L-G16RevA.03 25-Dec-2016
                 8-Feb-2021 
 ******************************************
 %nproc=8
 Will use up to    8 processors via shared memory.
 %Mem=4GB
 ----------------------------------------------------------------------
 #t B3LYP/6-31G(d,p) scrf=(solvent=water) # Gfinput IOP(6/7=3) Pop=hirs
 hfeld Density Test # Units(Ang,Deg)
 ----------------------------------------------------------------------
 ---------------------
 ris-1-3dp-opt-g09.log
 ---------------------
 Symbolic Z-matrix:
 Charge = -4 Multiplicity = 2
 C                     0.34401  -0.81685  -0.79732 
 H                     0.18502  -0.4238   -1.80609 
 H                     0.10652  -1.88524  -0.83502 
 C                    -0.72798  -0.18407   0.12339 
 O                    -0.45089  -0.54928   1.50739 
 H                    -1.3804   -0.80428   1.79039 
 C                     1.79732  -0.64509  -0.42568 
 C                     2.36088  -1.28439   0.68795 
 C                     2.67521   0.11002  -1.21688 
 C                     3.71914  -1.13039   0.95998 
 H                     1.72703  -1.882     1.33407 
 N                     3.98634   0.26637  -0.9801 
 H                     2.28209   0.62611  -2.09148 
 C                     4.49071  -0.34905   0.10016 
 H                     4.17713  -1.61272   1.81851 
 H                     5.55605  -0.21532   0.28196 
 P                    -0.67888   1.68546   0.08109 
 P                    -2.43929  -0.99552  -0.23769 
 O                    -1.84705   2.32882   0.81227 
 O                     0.67663   1.88771   1.06107 
 O                    -0.3209    2.20643  -1.30282 
 O                    -2.93123  -1.14432   1.24251 
 O                    -2.13975  -2.35232  -0.90779 
 O                    -3.28137  -0.04581  -1.10617 
 H                     0.61546   1.13242   1.67605 
 
                    Distance matrix (angstroms):
                    1          2          3          4          5
     1  C    0.000000
     2  H    1.094250   0.000000
     3  H    1.095116   1.756401   0.000000
     4  C    1.548315   2.148007   2.123422   0.000000
     5  O    2.452580   3.376281   2.753612   1.457948   0.000000
     6  H    3.109661   3.940809   3.205025   1.894519   1.004541
     7  C    1.509877   2.134013   2.136431   2.625101   2.966545
     8  C    2.548016   3.419827   2.786144   3.327234   3.019589
     9  C    2.543543   2.614035   3.274912   3.669403   4.198669
    10  C    3.818103   4.543173   4.104004   4.623016   4.245762
    11  H    2.755016   3.790085   2.707585   3.221147   2.559203
    12  N    3.804385   3.950776   4.438860   4.862654   5.151883
    13  H    2.741010   2.362512   3.552277   3.823946   4.669324
    14  C    4.268422   4.709389   4.738730   5.221349   5.141964
    15  H    4.708374   5.521612   4.866760   5.382804   4.758810
    16  H    5.356496   5.766401   5.808068   6.286108   6.139750
    17  P    2.842440   2.959181   3.769086   1.870653   2.660897
    18  P    2.844621   3.110265   2.762165   1.928059   2.682940
    19  O    4.157735   4.308368   4.928316   2.835752   3.273517
    20  O    3.298317   3.715557   4.260908   2.672910   2.722026
    21  O    3.136536   2.725316   4.140445   2.813233   3.938034
    22  O    3.872382   4.418611   3.754067   2.651192   2.564434
    23  O    2.922146   3.151299   2.295471   2.785271   3.454894
    24  O    3.719311   3.556490   3.864560   2.837382   3.885331
    25  H    3.160838   3.838281   3.958632   2.439002   1.998415
                    6          7          8          9         10
     6  H    0.000000
     7  C    3.877398   0.000000
     8  C    3.929765   1.402311   0.000000
     9  C    5.131042   1.402455   2.381504   0.000000
    10  C    5.176991   2.418463   1.393767   2.714245   0.000000
    11  H    3.320516   2.152117   1.084608   3.372615   2.161796
    12  N    6.133825   2.435149   2.798101   1.341481   2.405461
    13  H    5.525284   2.150777   3.373640   1.088952   3.802869
    14  C    6.126503   2.760163   2.399278   2.289406   1.394669
    15  H    5.616093   3.411186   2.164424   3.799630   1.086034
    16  H    7.122961   3.848832   3.393648   3.263680   2.161320
    17  P    3.100426   3.438000   4.292835   3.926405   5.295662
    18  P    2.295850   4.255233   4.897131   5.323452   6.275258
    19  O    3.315237   4.863959   5.547740   5.430595   6.555183
    20  O    3.465558   3.143477   3.610836   3.513340   4.286725
    21  O    4.444644   3.658879   4.831246   3.657731   5.707587
    22  O    1.679546   5.038975   5.322930   6.249331   6.656383
    23  O    3.202064   4.318285   4.893111   5.416871   6.269631
    24  O    3.546692   5.159001   6.048796   5.959646   7.379189
    25  H    2.783404   2.995597   3.140669   3.695526   3.907159
                   11         12         13         14         15
    11  H    0.000000
    12  N    3.882700   0.000000
    13  H    4.281717   2.066167   0.000000
    14  C    3.392698   1.341675   3.260709   0.000000
    15  H    2.512008   3.376329   4.887899   2.155904   0.000000
    16  H    4.306524   2.070944   4.130380   1.088983   2.493017
    17  P    4.481644   4.990413   3.822254   5.555561   6.121883
    18  P    4.540319   6.590316   5.325190   6.968283   6.955998
    19  O    5.547732   6.441640   5.327362   6.917029   7.269044
    20  O    3.922828   4.212992   3.756023   4.524782   5.008016
    21  O    5.278491   4.735008   3.145624   5.625871   6.675394
    22  O    4.717196   7.401541   6.436507   7.551332   7.147024
    23  O    4.494344   6.662713   5.461212   6.999432   6.919732
    24  O    5.866041   7.275504   5.689851   7.870986   8.163221
    25  H    3.230985   4.378128   4.150697   4.437989   4.499065
                   16         17         18         19         20
    16  H    0.000000
    17  P    6.521324   0.000000
    18  P    8.050106   3.223091   0.000000
    19  O    7.846003   1.520907   3.536156   0.000000
    20  O    5.370148   1.684836   4.439454   2.573993   0.000000
    21  O    6.550950   1.521436   3.984289   2.611076   2.585464
    22  O    8.591834   3.798636   1.566888   3.663776   4.716225
    23  O    8.075123   4.406324   1.542616   4.995733   5.457679
    24  O    8.947381   3.343626   1.537955   3.372915   4.909297
    25  H    5.307478   2.127220   4.185932   2.870792   0.975912
                   21         22         23         24         25
    21  O    0.000000
    22  O    4.951773   0.000000
    23  O    4.924070   2.590269   0.000000
    24  O    3.725002   2.616414   2.581209   0.000000
    25  H    3.302111   4.236804   5.139146   4.930949   0.000000
 Framework group  C1[X(C7H8NO7P2)]
 Deg. of freedom    69
                         Standard orientation:                         
 ---------------------------------------------------------------------
 Center     Atomic      Atomic             Coordinates (Angstroms)
 Number     Number       Type             X           Y           Z
 ---------------------------------------------------------------------
      1          6           0        0.344010   -0.816849   -0.797320
      2          1           0        0.185020   -0.423799   -1.806090
      3          1           0        0.106520   -1.885238   -0.835020
      4          6           0       -0.727980   -0.184068    0.123390
      5          8           0       -0.450890   -0.549278    1.507390
      6          1           0       -1.380400   -0.804278    1.790390
      7          6           0        1.797320   -0.645089   -0.425680
      8          6           0        2.360880   -1.284389    0.687950
      9          6           0        2.675210    0.110021   -1.216880
     10          6           0        3.719140   -1.130390    0.959980
     11          1           0        1.727030   -1.881999    1.334070
     12          7           0        3.986340    0.266370   -0.980100
     13          1           0        2.282090    0.626111   -2.091480
     14          6           0        4.490710   -0.349050    0.100160
     15          1           0        4.177130   -1.612720    1.818510
     16          1           0        5.556050   -0.215320    0.281960
     17         15           0       -0.678879    1.685462    0.081090
     18         15           0       -2.439290   -0.995518   -0.237690
     19          8           0       -1.847049    2.328822    0.812270
     20          8           0        0.676631    1.887711    1.061070
     21          8           0       -0.320899    2.206432   -1.302820
     22          8           0       -2.931230   -1.144318    1.242510
     23          8           0       -2.139751   -2.352318   -0.907790
     24          8           0       -3.281370   -0.045807   -1.106170
     25          1           0        0.615460    1.132421    1.676050
 ---------------------------------------------------------------------
 Rotational constants (GHZ):           0.6765170           0.2862326           0.2459880
 AO basis set in the form of general basis input (Overlap normalization):
      1 0
 S   6 1.00       0.000000000000
      0.3047524880D+04  0.1834737132D-02
      0.4573695180D+03  0.1403732281D-01
      0.1039486850D+03  0.6884262226D-01
      0.2921015530D+02  0.2321844432D+00
      0.9286662960D+01  0.4679413484D+00
      0.3163926960D+01  0.3623119853D+00
 SP   3 1.00       0.000000000000
      0.7868272350D+01 -0.1193324198D+00  0.6899906659D-01
      0.1881288540D+01 -0.1608541517D+00  0.3164239610D+00
      0.5442492580D+00  0.1143456438D+01  0.7443082909D+00
 SP   1 1.00       0.000000000000
      0.1687144782D+00  0.1000000000D+01  0.1000000000D+01
 D   1 1.00       0.000000000000
      0.8000000000D+00  0.1000000000D+01
 ****
      2 0
 S   3 1.00       0.000000000000
      0.1873113696D+02  0.3349460434D-01
      0.2825394365D+01  0.2347269535D+00
      0.6401216923D+00  0.8137573261D+00
 S   1 1.00       0.000000000000
      0.1612777588D+00  0.1000000000D+01
 P   1 1.00       0.000000000000
      0.1100000000D+01  0.1000000000D+01
 ****
      3 0
 S   3 1.00       0.000000000000
      0.1873113696D+02  0.3349460434D-01
      0.2825394365D+01  0.2347269535D+00
      0.6401216923D+00  0.8137573261D+00
 S   1 1.00       0.000000000000
      0.1612777588D+00  0.1000000000D+01
 P   1 1.00       0.000000000000
      0.1100000000D+01  0.1000000000D+01
 ****
      4 0
 S   6 1.00       0.000000000000
      0.3047524880D+04  0.1834737132D-02
      0.4573695180D+03  0.1403732281D-01
      0.1039486850D+03  0.6884262226D-01
      0.2921015530D+02  0.2321844432D+00
      0.9286662960D+01  0.4679413484D+00
      0.3163926960D+01  0.3623119853D+00
 SP   3 1.00       0.000000000000
      0.7868272350D+01 -0.1193324198D+00  0.6899906659D-01
      0.1881288540D+01 -0.1608541517D+00  0.3164239610D+00
      0.5442492580D+00  0.1143456438D+01  0.7443082909D+00
 SP   1 1.00       0.000000000000
      0.1687144782D+00  0.1000000000D+01  0.1000000000D+01
 D   1 1.00       0.000000000000
      0.8000000000D+00  0.1000000000D+01
 ****
      5 0
 S   6 1.00       0.000000000000
      0.5484671660D+04  0.1831074430D-02
      0.8252349460D+03  0.1395017220D-01
      0.1880469580D+03  0.6844507810D-01
      0.5296450000D+02  0.2327143360D+00
      0.1689757040D+02  0.4701928980D+00
      0.5799635340D+01  0.3585208530D+00
 SP   3 1.00       0.000000000000
      0.1553961625D+02 -0.1107775495D+00  0.7087426823D-01
      0.3599933586D+01 -0.1480262627D+00  0.3397528391D+00
      0.1013761750D+01  0.1130767015D+01  0.7271585773D+00
 SP   1 1.00       0.000000000000
      0.2700058226D+00  0.1000000000D+01  0.1000000000D+01
 D   1 1.00       0.000000000000
      0.8000000000D+00  0.1000000000D+01
 ****
      6 0
 S   3 1.00       0.000000000000
      0.1873113696D+02  0.3349460434D-01
      0.2825394365D+01  0.2347269535D+00
      0.6401216923D+00  0.8137573261D+00
 S   1 1.00       0.000000000000
      0.1612777588D+00  0.1000000000D+01
 P   1 1.00       0.000000000000
      0.1100000000D+01  0.1000000000D+01
 ****
      7 0
 S   6 1.00       0.000000000000
      0.3047524880D+04  0.1834737132D-02
      0.4573695180D+03  0.1403732281D-01
      0.1039486850D+03  0.6884262226D-01
      0.2921015530D+02  0.2321844432D+00
      0.9286662960D+01  0.4679413484D+00
      0.3163926960D+01  0.3623119853D+00
 SP   3 1.00       0.000000000000
      0.7868272350D+01 -0.1193324198D+00  0.6899906659D-01
      0.1881288540D+01 -0.1608541517D+00  0.3164239610D+00
      0.5442492580D+00  0.1143456438D+01  0.7443082909D+00
 SP   1 1.00       0.000000000000
      0.1687144782D+00  0.1000000000D+01  0.1000000000D+01
 D   1 1.00       0.000000000000
      0.8000000000D+00  0.1000000000D+01
 ****
      8 0
 S   6 1.00       0.000000000000
      0.3047524880D+04  0.1834737132D-02
      0.4573695180D+03  0.1403732281D-01
      0.1039486850D+03  0.6884262226D-01
      0.2921015530D+02  0.2321844432D+00
      0.9286662960D+01  0.4679413484D+00
      0.3163926960D+01  0.3623119853D+00
 SP   3 1.00       0.000000000000
      0.7868272350D+01 -0.1193324198D+00  0.6899906659D-01
      0.1881288540D+01 -0.1608541517D+00  0.3164239610D+00
      0.5442492580D+00  0.1143456438D+01  0.7443082909D+00
 SP   1 1.00       0.000000000000
      0.1687144782D+00  0.1000000000D+01  0.1000000000D+01
 D   1 1.00       0.000000000000
      0.8000000000D+00  0.1000000000D+01
 ****
      9 0
 S   6 1.00       0.000000000000
      0.3047524880D+04  0.1834737132D-02
      0.4573695180D+03  0.1403732281D-01
      0.1039486850D+03  0.6884262226D-01
      0.2921015530D+02  0.2321844432D+00
      0.9286662960D+01  0.4679413484D+00
      0.3163926960D+01  0.3623119853D+00
 SP   3 1.00       0.000000000000
      0.7868272350D+01 -0.1193324198D+00  0.6899906659D-01
      0.1881288540D+01 -0.1608541517D+00  0.3164239610D+00
      0.5442492580D+00  0.1143456438D+01  0.7443082909D+00
 SP   1 1.00       0.000000000000
      0.1687144782D+00  0.1000000000D+01  0.1000000000D+01
 D   1 1.00       0.000000000000
      0.8000000000D+00  0.1000000000D+01
 ****
     10 0
 S   6 1.00       0.000000000000
      0.3047524880D+04  0.1834737132D-02
      0.4573695180D+03  0.1403732281D-01
      0.1039486850D+03  0.6884262226D-01
      0.2921015530D+02  0.2321844432D+00
      0.9286662960D+01  0.4679413484D+00
      0.3163926960D+01  0.3623119853D+00
 SP   3 1.00       0.000000000000
      0.7868272350D+01 -0.1193324198D+00  0.6899906659D-01
      0.1881288540D+01 -0.1608541517D+00  0.3164239610D+00
      0.5442492580D+00  0.1143456438D+01  0.7443082909D+00
 SP   1 1.00       0.000000000000
      0.1687144782D+00  0.1000000000D+01  0.1000000000D+01
 D   1 1.00       0.000000000000
      0.8000000000D+00  0.1000000000D+01
 ****
     11 0
 S   3 1.00       0.000000000000
      0.1873113696D+02  0.3349460434D-01
      0.2825394365D+01  0.2347269535D+00
      0.6401216923D+00  0.8137573261D+00
 S   1 1.00       0.000000000000
      0.1612777588D+00  0.1000000000D+01
 P   1 1.00       0.000000000000
      0.1100000000D+01  0.1000000000D+01
 ****
     12 0
 S   6 1.00       0.000000000000
      0.4173511460D+04  0.1834772160D-02
      0.6274579110D+03  0.1399462700D-01
      0.1429020930D+03  0.6858655181D-01
      0.4023432930D+02  0.2322408730D+00
      0.1282021290D+02  0.4690699481D+00
      0.4390437010D+01  0.3604551991D+00
 SP   3 1.00       0.000000000000
      0.1162636186D+02 -0.1149611817D+00  0.6757974388D-01
      0.2716279807D+01 -0.1691174786D+00  0.3239072959D+00
      0.7722183966D+00  0.1145851947D+01  0.7408951398D+00
 SP   1 1.00       0.000000000000
      0.2120314975D+00  0.1000000000D+01  0.1000000000D+01
 D   1 1.00       0.000000000000
      0.8000000000D+00  0.1000000000D+01
 ****
     13 0
 S   3 1.00       0.000000000000
      0.1873113696D+02  0.3349460434D-01
      0.2825394365D+01  0.2347269535D+00
      0.6401216923D+00  0.8137573261D+00
 S   1 1.00       0.000000000000
      0.1612777588D+00  0.1000000000D+01
 P   1 1.00       0.000000000000
      0.1100000000D+01  0.1000000000D+01
 ****
     14 0
 S   6 1.00       0.000000000000
      0.3047524880D+04  0.1834737132D-02
      0.4573695180D+03  0.1403732281D-01
      0.1039486850D+03  0.6884262226D-01
      0.2921015530D+02  0.2321844432D+00
      0.9286662960D+01  0.4679413484D+00
      0.3163926960D+01  0.3623119853D+00
 SP   3 1.00       0.000000000000
      0.7868272350D+01 -0.1193324198D+00  0.6899906659D-01
      0.1881288540D+01 -0.1608541517D+00  0.3164239610D+00
      0.5442492580D+00  0.1143456438D+01  0.7443082909D+00
 SP   1 1.00       0.000000000000
      0.1687144782D+00  0.1000000000D+01  0.1000000000D+01
 D   1 1.00       0.000000000000
      0.8000000000D+00  0.1000000000D+01
 ****
     15 0
 S   3 1.00       0.000000000000
      0.1873113696D+02  0.3349460434D-01
      0.2825394365D+01  0.2347269535D+00
      0.6401216923D+00  0.8137573261D+00
 S   1 1.00       0.000000000000
      0.1612777588D+00  0.1000000000D+01
 P   1 1.00       0.000000000000
      0.1100000000D+01  0.1000000000D+01
 ****
     16 0
 S   3 1.00       0.000000000000
      0.1873113696D+02  0.3349460434D-01
      0.2825394365D+01  0.2347269535D+00
      0.6401216923D+00  0.8137573261D+00
 S   1 1.00       0.000000000000
      0.1612777588D+00  0.1000000000D+01
 P   1 1.00       0.000000000000
      0.1100000000D+01  0.1000000000D+01
 ****
     17 0
 S   6 1.00       0.000000000000
      0.1941330000D+05  0.1851598923D-02
      0.2909420000D+04  0.1420619174D-01
      0.6613640000D+03  0.6999945928D-01
      0.1857590000D+03  0.2400788603D+00
      0.5919430000D+02  0.4847617180D+00
      0.2003100000D+02  0.3351998050D+00
 SP   6 1.00       0.000000000000
      0.3394780000D+03 -0.2782170105D-02  0.4564616191D-02
      0.8101010000D+02 -0.3604990135D-01  0.3369357188D-01
      0.2587800000D+02 -0.1166310044D+00  0.1397548834D+00
      0.9452210000D+01  0.9683280364D-01  0.3393617168D+00
      0.3665660000D+01  0.6144180231D+00  0.4509206237D+00
      0.1467460000D+01  0.4037980152D+00  0.2385858009D+00
 SP   3 1.00       0.000000000000
      0.2156230000D+01 -0.2529241139D+00 -0.1776531273D-01
      0.7489970000D+00  0.3285184468D-01  0.2740581964D+00
      0.2831450000D+00  0.1081254762D+01  0.7854215630D+00
 SP   1 1.00       0.000000000000
      0.9983170000D-01  0.1000000000D+01  0.1000000000D+01
 D   1 1.00       0.000000000000
      0.5500000000D+00  0.1000000000D+01
 ****
     18 0
 S   6 1.00       0.000000000000
      0.1941330000D+05  0.1851598923D-02
      0.2909420000D+04  0.1420619174D-01
      0.6613640000D+03  0.6999945928D-01
      0.1857590000D+03  0.2400788603D+00
      0.5919430000D+02  0.4847617180D+00
      0.2003100000D+02  0.3351998050D+00
 SP   6 1.00       0.000000000000
      0.3394780000D+03 -0.2782170105D-02  0.4564616191D-02
      0.8101010000D+02 -0.3604990135D-01  0.3369357188D-01
      0.2587800000D+02 -0.1166310044D+00  0.1397548834D+00
      0.9452210000D+01  0.9683280364D-01  0.3393617168D+00
      0.3665660000D+01  0.6144180231D+00  0.4509206237D+00
      0.1467460000D+01  0.4037980152D+00  0.2385858009D+00
 SP   3 1.00       0.000000000000
      0.2156230000D+01 -0.2529241139D+00 -0.1776531273D-01
      0.7489970000D+00  0.3285184468D-01  0.2740581964D+00
      0.2831450000D+00  0.1081254762D+01  0.7854215630D+00
 SP   1 1.00       0.000000000000
      0.9983170000D-01  0.1000000000D+01  0.1000000000D+01
 D   1 1.00       0.000000000000
      0.5500000000D+00  0.1000000000D+01
 ****
     19 0
 S   6 1.00       0.000000000000
      0.5484671660D+04  0.1831074430D-02
      0.8252349460D+03  0.1395017220D-01
      0.1880469580D+03  0.6844507810D-01
      0.5296450000D+02  0.2327143360D+00
      0.1689757040D+02  0.4701928980D+00
      0.5799635340D+01  0.3585208530D+00
 SP   3 1.00       0.000000000000
      0.1553961625D+02 -0.1107775495D+00  0.7087426823D-01
      0.3599933586D+01 -0.1480262627D+00  0.3397528391D+00
      0.1013761750D+01  0.1130767015D+01  0.7271585773D+00
 SP   1 1.00       0.000000000000
      0.2700058226D+00  0.1000000000D+01  0.1000000000D+01
 D   1 1.00       0.000000000000
      0.8000000000D+00  0.1000000000D+01
 ****
     20 0
 S   6 1.00       0.000000000000
      0.5484671660D+04  0.1831074430D-02
      0.8252349460D+03  0.1395017220D-01
      0.1880469580D+03  0.6844507810D-01
      0.5296450000D+02  0.2327143360D+00
      0.1689757040D+02  0.4701928980D+00
      0.5799635340D+01  0.3585208530D+00
 SP   3 1.00       0.000000000000
      0.1553961625D+02 -0.1107775495D+00  0.7087426823D-01
      0.3599933586D+01 -0.1480262627D+00  0.3397528391D+00
      0.1013761750D+01  0.1130767015D+01  0.7271585773D+00
 SP   1 1.00       0.000000000000
      0.2700058226D+00  0.1000000000D+01  0.1000000000D+01
 D   1 1.00       0.000000000000
      0.8000000000D+00  0.1000000000D+01
 ****
     21 0
 S   6 1.00       0.000000000000
      0.5484671660D+04  0.1831074430D-02
      0.8252349460D+03  0.1395017220D-01
      0.1880469580D+03  0.6844507810D-01
      0.5296450000D+02  0.2327143360D+00
      0.1689757040D+02  0.4701928980D+00
      0.5799635340D+01  0.3585208530D+00
 SP   3 1.00       0.000000000000
      0.1553961625D+02 -0.1107775495D+00  0.7087426823D-01
      0.3599933586D+01 -0.1480262627D+00  0.3397528391D+00
      0.1013761750D+01  0.1130767015D+01  0.7271585773D+00
 SP   1 1.00       0.000000000000
      0.2700058226D+00  0.1000000000D+01  0.1000000000D+01
 D   1 1.00       0.000000000000
      0.8000000000D+00  0.1000000000D+01
 ****
     22 0
 S   6 1.00       0.000000000000
      0.5484671660D+04  0.1831074430D-02
      0.8252349460D+03  0.1395017220D-01
      0.1880469580D+03  0.6844507810D-01
      0.5296450000D+02  0.2327143360D+00
      0.1689757040D+02  0.4701928980D+00
      0.5799635340D+01  0.3585208530D+00
 SP   3 1.00       0.000000000000
      0.1553961625D+02 -0.1107775495D+00  0.7087426823D-01
      0.3599933586D+01 -0.1480262627D+00  0.3397528391D+00
      0.1013761750D+01  0.1130767015D+01  0.7271585773D+00
 SP   1 1.00       0.000000000000
      0.2700058226D+00  0.1000000000D+01  0.1000000000D+01
 D   1 1.00       0.000000000000
      0.8000000000D+00  0.1000000000D+01
 ****
     23 0
 S   6 1.00       0.000000000000
      0.5484671660D+04  0.1831074430D-02
      0.8252349460D+03  0.1395017220D-01
      0.1880469580D+03  0.6844507810D-01
      0.5296450000D+02  0.2327143360D+00
      0.1689757040D+02  0.4701928980D+00
      0.5799635340D+01  0.3585208530D+00
 SP   3 1.00       0.000000000000
      0.1553961625D+02 -0.1107775495D+00  0.7087426823D-01
      0.3599933586D+01 -0.1480262627D+00  0.3397528391D+00
      0.1013761750D+01  0.1130767015D+01  0.7271585773D+00
 SP   1 1.00       0.000000000000
      0.2700058226D+00  0.1000000000D+01  0.1000000000D+01
 D   1 1.00       0.000000000000
      0.8000000000D+00  0.1000000000D+01
 ****
     24 0
 S   6 1.00       0.000000000000
      0.5484671660D+04  0.1831074430D-02
      0.8252349460D+03  0.1395017220D-01
      0.1880469580D+03  0.6844507810D-01
      0.5296450000D+02  0.2327143360D+00
      0.1689757040D+02  0.4701928980D+00
      0.5799635340D+01  0.3585208530D+00
 SP   3 1.00       0.000000000000
      0.1553961625D+02 -0.1107775495D+00  0.7087426823D-01
      0.3599933586D+01 -0.1480262627D+00  0.3397528391D+00
      0.1013761750D+01  0.1130767015D+01  0.7271585773D+00
 SP   1 1.00       0.000000000000
      0.2700058226D+00  0.1000000000D+01  0.1000000000D+01
 D   1 1.00       0.000000000000
      0.8000000000D+00  0.1000000000D+01
 ****
     25 0
 S   3 1.00       0.000000000000
      0.1873113696D+02  0.3349460434D-01
      0.2825394365D+01  0.2347269535D+00
      0.6401216923D+00  0.8137573261D+00
 S   1 1.00       0.000000000000
      0.1612777588D+00  0.1000000000D+01
 P   1 1.00       0.000000000000
      0.1100000000D+01  0.1000000000D+01
 ****

   303 basis functions,   580 primitive gaussians,   303 cartesian basis functions
    74 alpha electrons       73 beta electrons
       nuclear repulsion energy      1608.7956696645 Hartrees.
 NAtoms=   25 NActive=   25 NUniq=   25 SFac= 1.00D+00 NAtFMM=   60 NAOKFM=F Big=F
 ------------------------------------------------------------------------------
 Polarizable Continuum Model (PCM)
 =================================
 Model                : PCM.
 Atomic radii         : UFF (Universal Force Field).
 Polarization charges : Total charges.
 Charge compensation  : None.
 Solution method      : On-the-fly selection.
 Cavity type          : Scaled VdW (van der Waals Surface) (Alpha=1.100).
 Cavity algorithm     : GePol (No added spheres)
                        Default sphere list used, NSphG=   25.
                        Lebedev-Laikov grids with approx.  5.0 points / Ang**2.
                        Smoothing algorithm: York/Karplus (Gamma=1.0000).
                        Polarization charges: spherical gaussians, with
                                              point-specific exponents (IZeta= 3).
                        Self-potential: point-specific (ISelfS= 7).
                        Self-field    : sphere-specific E.n sum rule (ISelfD= 2).
 Solvent              : Water, Eps=  78.355300 Eps(inf)=   1.777849
 ------------------------------------------------------------------------------
 ExpMin= 9.98D-02 ExpMax= 1.94D+04 ExpMxC= 2.91D+03 IAcc=3 IRadAn=         5 AccDes= 0.00D+00
 Harris functional with IExCor=  402 and IRadAn=       5 diagonalized for initial guess.
 HarFok:  IExCor=  402 AccDes= 0.00D+00 IRadAn=         5 IDoV= 1 UseB2=F ITyADJ=14
 ICtDFT=  3500011 ScaDFX=  1.000000  1.000000  1.000000  1.000000
 FoFCou: FMM=F IPFlag=           0 FMFlag=      100000 FMFlg1=           0
         NFxFlg=           0 DoJE=T BraDBF=F KetDBF=T FulRan=T
         wScrn=  0.000000 ICntrl=       500 IOpCl=  0 I1Cent=   200000004 NGrid=           0
         NMat0=    1 NMatS0=      1 NMatT0=    0 NMatD0=    1 NMtDS0=    0 NMtDT0=    0
 Petite list used in FoFCou.
 Initial guess <Sx>= 0.0000 <Sy>= 0.0000 <Sz>= 0.5000 <S**2>= 0.7500 S= 0.5000
 Inv3:  Mode=1 IEnd=    14335788.
 Iteration    1 A*A^-1 deviation from unit magnitude is 9.33D-15 for     92.
 Iteration    1 A*A^-1 deviation from orthogonality  is 6.49D-15 for   2052    532.
 Iteration    1 A^-1*A deviation from unit magnitude is 8.44D-15 for    917.
 Iteration    1 A^-1*A deviation from orthogonality  is 5.90D-15 for   2067   1388.
 Error on total polarization charges =  0.01112
 SCF Done:  E(UB3LYP) =  -1536.13912470     A.U. after   20 cycles
            NFock= 20  Conv=0.68D-08     -V/T= 2.0065
 <Sx>= 0.0000 <Sy>= 0.0000 <Sz>= 0.5000 <S**2>= 0.7586 S= 0.5043
 <L.S>= 0.000000000000E+00
 Annihilation of the first spin contaminant:
 S**2 before annihilation     0.7586,   after     0.7500

 **********************************************************************

            Population analysis using the SCF density.

 **********************************************************************

 Orbital symmetries:
 Alpha Orbitals:
       Occupied  (A) (A) (A) (A) (A) (A) (A) (A) (A) (A) (A) (A)
                 (A) (A) (A) (A) (A) (A) (A) (A) (A) (A) (A) (A)
                 (A) (A) (A) (A) (A) (A) (A) (A) (A) (A) (A) (A)
                 (A) (A) (A) (A) (A) (A) (A) (A) (A) (A) (A) (A)
                 (A) (A) (A) (A) (A) (A) (A) (A) (A) (A) (A) (A)
                 (A) (A) (A) (A) (A) (A) (A) (A) (A) (A) (A) (A)
                 (A) (A)
       Virtual   (A) (A) (A) (A) (A) (A) (A) (A) (A) (A) (A) (A)
                 (A) (A) (A) (A) (A) (A) (A) (A) (A) (A) (A) (A)
                 (A) (A) (A) (A) (A) (A) (A) (A) (A) (A) (A) (A)
                 (A) (A) (A) (A) (A) (A) (A) (A) (A) (A) (A) (A)
                 (A) (A) (A) (A) (A) (A) (A) (A) (A) (A) (A) (A)
                 (A) (A) (A) (A) (A) (A) (A) (A) (A) (A) (A) (A)
                 (A) (A) (A) (A) (A) (A) (A) (A) (A) (A) (A) (A)
                 (A) (A) (A) (A) (A) (A) (A) (A) (A) (A) (A) (A)
                 (A) (A) (A) (A) (A) (A) (A) (A) (A) (A) (A) (A)
                 (A) (A) (A) (A) (A) (A) (A) (A) (A) (A) (A) (A)
                 (A) (A) (A) (A) (A) (A) (A) (A) (A) (A) (A) (A)
                 (A) (A) (A) (A) (A) (A) (A) (A) (A) (A) (A) (A)
                 (A) (A) (A) (A) (A) (A) (A) (A) (A) (A) (A) (A)
                 (A) (A) (A) (A) (A) (A) (A) (A) (A) (A) (A) (A)
                 (A) (A) (A) (A) (A) (A) (A) (A) (A) (A) (A) (A)
                 (A) (A) (A) (A) (A) (A) (A) (A) (A) (A) (A) (A)
                 (A) (A) (A) (A) (A) (A) (A) (A) (A) (A) (A) (A)
                 (A) (A) (A) (A) (A) (A) (A) (A) (A) (A) (A) (A)
                 (A) (A) (A) (A) (A) (A) (A) (A) (A) (A) (A) (A)
                 (A)
 Beta  Orbitals:
       Occupied  (A) (A) (A) (A) (A) (A) (A) (A) (A) (A) (A) (A)
                 (A) (A) (A) (A) (A) (A) (A) (A) (A) (A) (A) (A)
                 (A) (A) (A) (A) (A) (A) (A) (A) (A) (A) (A) (A)
                 (A) (A) (A) (A) (A) (A) (A) (A) (A) (A) (A) (A)
                 (A) (A) (A) (A) (A) (A) (A) (A) (A) (A) (A) (A)
                 (A) (A) (A) (A) (A) (A) (A) (A) (A) (A) (A) (A)
                 (A)
       Virtual   (A) (A) (A) (A) (A) (A) (A) (A) (A) (A) (A) (A)
                 (A) (A) (A) (A) (A) (A) (A) (A) (A) (A) (A) (A)
                 (A) (A) (A) (A) (A) (A) (A) (A) (A) (A) (A) (A)
                 (A) (A) (A) (A) (A) (A) (A) (A) (A) (A) (A) (A)
                 (A) (A) (A) (A) (A) (A) (A) (A) (A) (A) (A) (A)
                 (A) (A) (A) (A) (A) (A) (A) (A) (A) (A) (A) (A)
                 (A) (A) (A) (A) (A) (A) (A) (A) (A) (A) (A) (A)
                 (A) (A) (A) (A) (A) (A) (A) (A) (A) (A) (A) (A)
                 (A) (A) (A) (A) (A) (A) (A) (A) (A) (A) (A) (A)
                 (A) (A) (A) (A) (A) (A) (A) (A) (A) (A) (A) (A)
                 (A) (A) (A) (A) (A) (A) (A) (A) (A) (A) (A) (A)
                 (A) (A) (A) (A) (A) (A) (A) (A) (A) (A) (A) (A)
                 (A) (A) (A) (A) (A) (A) (A) (A) (A) (A) (A) (A)
                 (A) (A) (A) (A) (A) (A) (A) (A) (A) (A) (A) (A)
                 (A) (A) (A) (A) (A) (A) (A) (A) (A) (A) (A) (A)
                 (A) (A) (A) (A) (A) (A) (A) (A) (A) (A) (A) (A)
                 (A) (A) (A) (A) (A) (A) (A) (A) (A) (A) (A) (A)
                 (A) (A) (A) (A) (A) (A) (A) (A) (A) (A) (A) (A)
                 (A) (A) (A) (A) (A) (A) (A) (A) (A) (A) (A) (A)
                 (A) (A)
 The electronic state is 2-A.
 Alpha  occ. eigenvalues --  -77.11081 -77.08323 -19.08877 -19.08443 -19.02725
 Alpha  occ. eigenvalues --  -19.02552 -19.01306 -19.00492 -19.00305 -14.21968
 Alpha  occ. eigenvalues --  -10.16055 -10.13770 -10.12792 -10.12585 -10.11700
 Alpha  occ. eigenvalues --  -10.11498 -10.08919  -6.55917  -6.53046  -4.72428
 Alpha  occ. eigenvalues --   -4.72139  -4.72075  -4.69417  -4.69349  -4.69317
 Alpha  occ. eigenvalues --   -0.96843  -0.94453  -0.89537  -0.88761  -0.85013
 Alpha  occ. eigenvalues --   -0.84746  -0.82495  -0.81935  -0.73231  -0.69707
 Alpha  occ. eigenvalues --   -0.65112  -0.56604  -0.54887  -0.51922  -0.48000
 Alpha  occ. eigenvalues --   -0.46025  -0.43987  -0.42951  -0.39698  -0.39231
 Alpha  occ. eigenvalues --   -0.38236  -0.36695  -0.35069  -0.34102  -0.33045
 Alpha  occ. eigenvalues --   -0.32080  -0.31787  -0.31510  -0.30957  -0.30079
 Alpha  occ. eigenvalues --   -0.29223  -0.28500  -0.27387  -0.26669  -0.25090
 Alpha  occ. eigenvalues --   -0.23970  -0.22228  -0.21980  -0.21694  -0.20791
 Alpha  occ. eigenvalues --   -0.20306  -0.19141  -0.19000  -0.18352  -0.17767
 Alpha  occ. eigenvalues --   -0.17533  -0.16757  -0.15412  -0.00914
 Alpha virt. eigenvalues --    0.06292   0.13308   0.14969   0.15677   0.16681
 Alpha virt. eigenvalues --    0.17844   0.18267   0.19729   0.20259   0.21274
 Alpha virt. eigenvalues --    0.22374   0.22913   0.23622   0.24011   0.25818
 Alpha virt. eigenvalues --    0.27104   0.27418   0.30481   0.30988   0.31972
 Alpha virt. eigenvalues --    0.33192   0.34033   0.37891   0.38840   0.39904
 Alpha virt. eigenvalues --    0.40677   0.43886   0.44092   0.46624   0.47393
 Alpha virt. eigenvalues --    0.48564   0.49270   0.50152   0.52058   0.53181
 Alpha virt. eigenvalues --    0.58211   0.61345   0.62666   0.62987   0.65149
 Alpha virt. eigenvalues --    0.66028   0.66145   0.66289   0.68065   0.69264
 Alpha virt. eigenvalues --    0.71259   0.71520   0.72435   0.72890   0.73940
 Alpha virt. eigenvalues --    0.76762   0.77732   0.79234   0.79872   0.83867
 Alpha virt. eigenvalues --    0.84515   0.86316   0.86974   0.87494   0.87647
 Alpha virt. eigenvalues --    0.89476   0.90954   0.91117   0.91981   0.92892
 Alpha virt. eigenvalues --    0.93406   0.93993   0.95530   0.96593   0.98177
 Alpha virt. eigenvalues --    1.00228   1.01663   1.02072   1.03482   1.04865
 Alpha virt. eigenvalues --    1.06236   1.07372   1.08053   1.09540   1.10280
 Alpha virt. eigenvalues --    1.11230   1.11962   1.13325   1.14119   1.15168
 Alpha virt. eigenvalues --    1.15862   1.16812   1.17141   1.19606   1.20930
 Alpha virt. eigenvalues --    1.21382   1.23248   1.24444   1.26101   1.27240
 Alpha virt. eigenvalues --    1.28407   1.29726   1.30435   1.31798   1.33365
 Alpha virt. eigenvalues --    1.35511   1.37245   1.40473   1.40939   1.44177
 Alpha virt. eigenvalues --    1.45240   1.48307   1.49391   1.51220   1.51842
 Alpha virt. eigenvalues --    1.53136   1.55314   1.58690   1.60114   1.61432
 Alpha virt. eigenvalues --    1.63076   1.65573   1.68047   1.71352   1.72849
 Alpha virt. eigenvalues --    1.77523   1.78290   1.80150   1.83388   1.84995
 Alpha virt. eigenvalues --    1.85266   1.86907   1.87810   1.88658   1.89583
 Alpha virt. eigenvalues --    1.89940   1.90264   1.90724   1.91706   1.92557
 Alpha virt. eigenvalues --    1.92769   1.94185   1.94999   1.95324   1.96443
 Alpha virt. eigenvalues --    1.97213   1.98083   2.01356   2.02214   2.04219
 Alpha virt. eigenvalues --    2.04913   2.05825   2.07432   2.09475   2.10025
 Alpha virt. eigenvalues --    2.12192   2.13230   2.17095   2.17626   2.19565
 Alpha virt. eigenvalues --    2.20766   2.21123   2.25282   2.26008   2.28369
 Alpha virt. eigenvalues --    2.31953   2.33832   2.35870   2.37233   2.38499
 Alpha virt. eigenvalues --    2.39385   2.39811   2.42011   2.43715   2.44837
 Alpha virt. eigenvalues --    2.45996   2.46560   2.49411   2.50842   2.54926
 Alpha virt. eigenvalues --    2.56594   2.57182   2.57798   2.59853   2.61308
 Alpha virt. eigenvalues --    2.65569   2.68493   2.70079   2.71497   2.73456
 Alpha virt. eigenvalues --    2.75520   2.75916   2.76455   2.78906   2.80802
 Alpha virt. eigenvalues --    2.83303   2.84267   2.86669   2.89027   2.90159
 Alpha virt. eigenvalues --    2.91332   2.92657   2.94394   3.05296   3.06605
 Alpha virt. eigenvalues --    3.07812   3.15001   3.25549   3.30000   3.34547
 Alpha virt. eigenvalues --    3.38589   3.46945   3.49940   3.52388   3.54461
 Alpha virt. eigenvalues --    3.56178   3.60968   3.67625   3.87384   3.87758
 Alpha virt. eigenvalues --    3.89581   3.92095   3.97598   4.12203   4.13704
 Alpha virt. eigenvalues --    4.19509   4.25469   4.30214   4.31422   4.42700
 Alpha virt. eigenvalues --    4.44437   4.55729   4.74909   4.84684
  Beta  occ. eigenvalues --  -77.11081 -77.08322 -19.08873 -19.08436 -19.02721
  Beta  occ. eigenvalues --  -19.02552 -19.01305 -19.00491 -19.00304 -14.21225
  Beta  occ. eigenvalues --  -10.16047 -10.13664 -10.12621 -10.12589 -10.11700
  Beta  occ. eigenvalues --  -10.11515 -10.08298  -6.55917  -6.53046  -4.72428
  Beta  occ. eigenvalues --   -4.72139  -4.72075  -4.69417  -4.69349  -4.69316
  Beta  occ. eigenvalues --   -0.96836  -0.94445  -0.89534  -0.88757  -0.84753
  Beta  occ. eigenvalues --   -0.83940  -0.82493  -0.81932  -0.72676  -0.69079
  Beta  occ. eigenvalues --   -0.64740  -0.56436  -0.53963  -0.51634  -0.47965
  Beta  occ. eigenvalues --   -0.45976  -0.43688  -0.42871  -0.39421  -0.39053
  Beta  occ. eigenvalues --   -0.38128  -0.36516  -0.34998  -0.34017  -0.32857
  Beta  occ. eigenvalues --   -0.31736  -0.31396  -0.30884  -0.30302  -0.29773
  Beta  occ. eigenvalues --   -0.29150  -0.28363  -0.27251  -0.26592  -0.25049
  Beta  occ. eigenvalues --   -0.23925  -0.22202  -0.21967  -0.20722  -0.20312
  Beta  occ. eigenvalues --   -0.19046  -0.18969  -0.18342  -0.18197  -0.17069
  Beta  occ. eigenvalues --   -0.16571  -0.16446  -0.15410
  Beta virt. eigenvalues --    0.06744   0.07705   0.13376   0.14999   0.15778
  Beta virt. eigenvalues --    0.16867   0.17916   0.18305   0.20394   0.21296
  Beta virt. eigenvalues --    0.21596   0.22525   0.23190   0.23934   0.24484
  Beta virt. eigenvalues --    0.25850   0.27372   0.27669   0.30637   0.31304
  Beta virt. eigenvalues --    0.32199   0.33279   0.34210   0.37983   0.39105
  Beta virt. eigenvalues --    0.40006   0.40789   0.44086   0.44213   0.46730
  Beta virt. eigenvalues --    0.47434   0.48638   0.49320   0.50284   0.52160
  Beta virt. eigenvalues --    0.53508   0.59067   0.61514   0.63015   0.63340
  Beta virt. eigenvalues --    0.65444   0.66364   0.66652   0.67375   0.68574
  Beta virt. eigenvalues --    0.69397   0.71822   0.71962   0.72808   0.73323
  Beta virt. eigenvalues --    0.74356   0.76925   0.77922   0.79302   0.80506
  Beta virt. eigenvalues --    0.83931   0.84647   0.86532   0.87179   0.87601
  Beta virt. eigenvalues --    0.87843   0.89653   0.91316   0.91786   0.92853
  Beta virt. eigenvalues --    0.92989   0.94034   0.94268   0.95796   0.96770
  Beta virt. eigenvalues --    0.98315   1.00493   1.01774   1.02181   1.03547
  Beta virt. eigenvalues --    1.04932   1.06473   1.07385   1.08155   1.09673
  Beta virt. eigenvalues --    1.10399   1.11263   1.12029   1.13342   1.14185
  Beta virt. eigenvalues --    1.15200   1.15989   1.16836   1.17422   1.19647
  Beta virt. eigenvalues --    1.21144   1.21448   1.23284   1.24550   1.26207
  Beta virt. eigenvalues --    1.27303   1.28449   1.30022   1.30481   1.31904
  Beta virt. eigenvalues --    1.33765   1.36099   1.37302   1.40884   1.41488
  Beta virt. eigenvalues --    1.44367   1.45706   1.48751   1.50262   1.51385
  Beta virt. eigenvalues --    1.52677   1.53390   1.56427   1.58813   1.60250
  Beta virt. eigenvalues --    1.61584   1.63303   1.65634   1.68100   1.71498
  Beta virt. eigenvalues --    1.72930   1.77589   1.79052   1.80311   1.83441
  Beta virt. eigenvalues --    1.85121   1.85459   1.87024   1.87949   1.88830
  Beta virt. eigenvalues --    1.89655   1.90204   1.90310   1.90798   1.91761
  Beta virt. eigenvalues --    1.92605   1.92937   1.94214   1.95065   1.95361
  Beta virt. eigenvalues --    1.96520   1.97249   1.98347   2.01436   2.02706
  Beta virt. eigenvalues --    2.04530   2.05426   2.06291   2.07486   2.09597
  Beta virt. eigenvalues --    2.10204   2.12265   2.13398   2.17567   2.18338
  Beta virt. eigenvalues --    2.19935   2.21283   2.21376   2.25427   2.26070
  Beta virt. eigenvalues --    2.28542   2.32005   2.34165   2.36074   2.37266
  Beta virt. eigenvalues --    2.39019   2.39602   2.40382   2.42750   2.44131
  Beta virt. eigenvalues --    2.45307   2.46291   2.46849   2.49793   2.51174
  Beta virt. eigenvalues --    2.55350   2.56736   2.57549   2.58229   2.60222
  Beta virt. eigenvalues --    2.61890   2.65732   2.68650   2.70109   2.71551
  Beta virt. eigenvalues --    2.73752   2.75957   2.76190   2.77581   2.79437
  Beta virt. eigenvalues --    2.81001   2.83465   2.84387   2.86870   2.89085
  Beta virt. eigenvalues --    2.90179   2.91353   2.92734   2.94563   3.05328
  Beta virt. eigenvalues --    3.06649   3.08077   3.15202   3.25981   3.30063
  Beta virt. eigenvalues --    3.34700   3.38665   3.47140   3.49955   3.52472
  Beta virt. eigenvalues --    3.54480   3.56215   3.60974   3.67631   3.87638
  Beta virt. eigenvalues --    3.87824   3.89589   3.92102   3.97606   4.12219
  Beta virt. eigenvalues --    4.13849   4.20145   4.25970   4.30628   4.32043
  Beta virt. eigenvalues --    4.43218   4.44625   4.55935   4.75049   4.85147
     Alpha Molecular Orbital Coefficients:
                           1         2         3         4         5
                           O         O         O         O         O
     Eigenvalues --   -77.11081 -77.08323 -19.08877 -19.08443 -19.02725
   1 1   C  1S         -0.00002  -0.00000  -0.00004   0.00000  -0.00000
   2        2S         -0.00006   0.00003  -0.00016   0.00004  -0.00000
   3        2PX         0.00002   0.00004   0.00002  -0.00005  -0.00001
   4        2PY        -0.00003  -0.00001  -0.00008   0.00001  -0.00002
   5        2PZ        -0.00002  -0.00001  -0.00001   0.00005  -0.00004
   6        3S          0.00058  -0.00040   0.00079   0.00048  -0.00050
   7        3PX         0.00029   0.00002  -0.00006   0.00013   0.00014
   8        3PY        -0.00009   0.00001   0.00068   0.00015  -0.00008
   9        3PZ         0.00009  -0.00029   0.00020   0.00004   0.00003
  10        4XX        -0.00003  -0.00006  -0.00005   0.00002  -0.00002
  11        4YY        -0.00006  -0.00001  -0.00007   0.00002   0.00002
  12        4ZZ        -0.00004  -0.00003  -0.00005  -0.00006  -0.00001
  13        4XY         0.00001   0.00001  -0.00001   0.00001  -0.00000
  14        4XZ         0.00001   0.00001  -0.00001   0.00000   0.00001
  15        4YZ        -0.00002   0.00001   0.00002   0.00001  -0.00002
  16 2   H  1S         -0.00000   0.00001  -0.00008  -0.00001   0.00009
  17        2S         -0.00015  -0.00021  -0.00003  -0.00009   0.00005
  18        3PX         0.00000   0.00002  -0.00000   0.00001  -0.00002
  19        3PY        -0.00003   0.00001  -0.00003  -0.00002   0.00003
  20        3PZ        -0.00002  -0.00001  -0.00000  -0.00000  -0.00001
  21 3   H  1S         -0.00002   0.00002   0.00003  -0.00001   0.00001
  22        2S         -0.00005  -0.00012   0.00027   0.00015   0.00007
  23        3PX        -0.00001   0.00003   0.00001  -0.00002  -0.00001
  24        3PY         0.00001  -0.00001   0.00002   0.00001   0.00000
  25        3PZ        -0.00000  -0.00000  -0.00001   0.00004  -0.00000
  26 4   C  1S         -0.00003  -0.00005  -0.00001   0.00001  -0.00003
  27        2S         -0.00002  -0.00014  -0.00007   0.00015  -0.00020
  28        2PX         0.00001  -0.00003  -0.00000   0.00009  -0.00003
  29        2PY         0.00005  -0.00002   0.00001  -0.00009  -0.00001
  30        2PZ        -0.00000   0.00001   0.00002   0.00024   0.00005
  31        3S          0.00076   0.00140   0.00046  -0.00186   0.00119
  32        3PX        -0.00005  -0.00036  -0.00013  -0.00053   0.00045
  33        3PY         0.00042  -0.00034   0.00040   0.00043   0.00059
  34        3PZ         0.00006  -0.00004   0.00020  -0.00089  -0.00052
  35        4XX        -0.00008  -0.00010  -0.00004   0.00005  -0.00003
  36        4YY        -0.00015  -0.00009   0.00002   0.00009   0.00002
  37        4ZZ        -0.00007  -0.00008  -0.00002   0.00033  -0.00004
  38        4XY         0.00000  -0.00001   0.00001  -0.00000   0.00001
  39        4XZ        -0.00000  -0.00001   0.00001   0.00006  -0.00002
  40        4YZ         0.00001  -0.00000  -0.00003  -0.00009  -0.00001
  41 5   O  1S         -0.00000   0.00001  -0.00002   0.99270   0.00000
  42        2S         -0.00001   0.00002  -0.00006   0.02568   0.00000
  43        2PX         0.00001   0.00002  -0.00000  -0.00076  -0.00000
  44        2PY        -0.00002   0.00000  -0.00002  -0.00000   0.00003
  45        2PZ         0.00002   0.00001  -0.00003  -0.00035  -0.00000
  46        3S         -0.00011  -0.00027   0.00027   0.01287   0.00006
  47        3PX        -0.00002   0.00003   0.00010   0.00003  -0.00006
  48        3PY        -0.00007  -0.00000   0.00016   0.00024  -0.00014
  49        3PZ         0.00006   0.00019   0.00012  -0.00046   0.00001
  50        4XX        -0.00005   0.00003  -0.00003  -0.00828   0.00003
  51        4YY         0.00001  -0.00001  -0.00002  -0.00823   0.00000
  52        4ZZ        -0.00002   0.00000  -0.00006  -0.00831   0.00001
  53        4XY         0.00000   0.00003   0.00001   0.00001   0.00002
  54        4XZ         0.00001  -0.00001  -0.00000  -0.00002   0.00002
  55        4YZ        -0.00001  -0.00001   0.00003   0.00003   0.00001
  56 6   H  1S          0.00003  -0.00001  -0.00004   0.00045   0.00003
  57        2S         -0.00012  -0.00021   0.00009  -0.00166  -0.00014
  58        3PX         0.00000  -0.00001  -0.00000   0.00002  -0.00002
  59        3PY        -0.00002  -0.00001  -0.00002  -0.00002   0.00001
  60        3PZ         0.00002  -0.00003  -0.00001   0.00005  -0.00000
  61 7   C  1S          0.00002  -0.00001   0.00001  -0.00001  -0.00002
  62        2S          0.00009  -0.00002   0.00002  -0.00010  -0.00007
  63        2PX        -0.00002   0.00002   0.00001  -0.00001   0.00003
  64        2PY        -0.00000  -0.00000   0.00004  -0.00002  -0.00006
  65        2PZ         0.00002  -0.00000   0.00003   0.00003   0.00002
  66        3S         -0.00054   0.00001  -0.00061   0.00097   0.00022
  67        3PX         0.00051  -0.00043   0.00000   0.00036  -0.00019
  68        3PY         0.00026  -0.00008  -0.00022  -0.00009   0.00048
  69        3PZ        -0.00031   0.00006  -0.00008   0.00052  -0.00042
  70        4XX         0.00002   0.00001   0.00001  -0.00001  -0.00003
  71        4YY         0.00004  -0.00001   0.00005   0.00000  -0.00004
  72        4ZZ         0.00003  -0.00002   0.00001   0.00003  -0.00007
  73        4XY         0.00002   0.00000  -0.00000   0.00002   0.00001
  74        4XZ        -0.00001   0.00000  -0.00001  -0.00003  -0.00002
  75        4YZ        -0.00000   0.00000   0.00004  -0.00002  -0.00000
  76 8   C  1S         -0.00000  -0.00000  -0.00002   0.00001  -0.00000
  77        2S         -0.00002  -0.00001  -0.00006  -0.00003  -0.00003
  78        2PX        -0.00001   0.00000   0.00000  -0.00011  -0.00001
  79        2PY         0.00000   0.00000  -0.00001   0.00005   0.00001
  80        2PZ        -0.00000  -0.00000  -0.00002   0.00002  -0.00001
  81        3S          0.00027   0.00009   0.00047   0.00024   0.00048
  82        3PX        -0.00024   0.00008   0.00000   0.00096  -0.00006
  83        3PY         0.00005   0.00003   0.00020  -0.00054   0.00007
  84        3PZ        -0.00013  -0.00006  -0.00000   0.00066  -0.00024
  85        4XX         0.00002  -0.00001  -0.00002   0.00010   0.00000
  86        4YY        -0.00000  -0.00000  -0.00001   0.00001  -0.00001
  87        4ZZ        -0.00000   0.00000  -0.00003   0.00001   0.00002
  88        4XY        -0.00000   0.00000  -0.00001   0.00003  -0.00000
  89        4XZ         0.00001  -0.00000   0.00000  -0.00001   0.00001
  90        4YZ        -0.00000  -0.00001  -0.00002   0.00003  -0.00001
  91 9   C  1S          0.00001  -0.00000  -0.00000   0.00000  -0.00002
  92        2S          0.00004  -0.00001  -0.00003   0.00003  -0.00004
  93        2PX        -0.00001  -0.00000   0.00000   0.00001   0.00005
  94        2PY         0.00002  -0.00000  -0.00002   0.00000  -0.00003
  95        2PZ         0.00001   0.00000   0.00001  -0.00001  -0.00001
  96        3S         -0.00043   0.00020   0.00019  -0.00029   0.00018
  97        3PX         0.00016   0.00002  -0.00019  -0.00015   0.00023
  98        3PY         0.00009  -0.00013   0.00006   0.00007   0.00025
  99        3PZ        -0.00019   0.00017   0.00011  -0.00021  -0.00010
 100        4XX         0.00002  -0.00000  -0.00001  -0.00001  -0.00005
 101        4YY         0.00002   0.00001  -0.00001   0.00000  -0.00003
 102        4ZZ         0.00002   0.00000   0.00000  -0.00001  -0.00004
 103        4XY        -0.00001   0.00000  -0.00001  -0.00001  -0.00001
 104        4XZ         0.00001  -0.00000  -0.00002   0.00001   0.00001
 105        4YZ         0.00002  -0.00001   0.00001   0.00002  -0.00002
 106 10  C  1S          0.00000  -0.00000   0.00000   0.00001   0.00000
 107        2S          0.00001  -0.00000   0.00001   0.00007   0.00001
 108        2PX         0.00000   0.00000   0.00000   0.00003   0.00000
 109        2PY         0.00000  -0.00000   0.00000  -0.00002   0.00000
 110        2PZ        -0.00000   0.00000  -0.00000  -0.00001  -0.00000
 111        3S          0.00004  -0.00006  -0.00017  -0.00083  -0.00019
 112        3PX        -0.00007   0.00002   0.00011   0.00061  -0.00002
 113        3PY        -0.00006   0.00001  -0.00006   0.00032  -0.00008
 114        3PZ         0.00007   0.00001   0.00003   0.00006   0.00013
 115        4XX        -0.00000   0.00000  -0.00000  -0.00004  -0.00000
 116        4YY         0.00000  -0.00000   0.00000   0.00001   0.00000
 117        4ZZ        -0.00000  -0.00000  -0.00000  -0.00000   0.00000
 118        4XY         0.00000  -0.00000   0.00001  -0.00003  -0.00000
 119        4XZ        -0.00000   0.00000   0.00000  -0.00001  -0.00000
 120        4YZ         0.00000  -0.00000   0.00000   0.00001   0.00000
 121 11  H  1S         -0.00001   0.00000  -0.00002   0.00013  -0.00000
 122        2S         -0.00004   0.00003  -0.00001  -0.00058   0.00002
 123        3PX         0.00001  -0.00000   0.00001  -0.00006   0.00000
 124        3PY        -0.00000   0.00000  -0.00001  -0.00004   0.00000
 125        3PZ         0.00000   0.00000  -0.00001   0.00000   0.00001
 126 12  N  1S         -0.00000   0.00000  -0.00000   0.00000   0.00001
 127        2S         -0.00000   0.00000  -0.00001   0.00000   0.00003
 128        2PX         0.00000   0.00000  -0.00000  -0.00000  -0.00002
 129        2PY        -0.00000  -0.00000   0.00001  -0.00000   0.00001
 130        2PZ        -0.00001   0.00000   0.00000  -0.00000  -0.00000
 131        3S          0.00004  -0.00008   0.00006  -0.00003  -0.00029
 132        3PX         0.00000   0.00000  -0.00002  -0.00013   0.00020
 133        3PY         0.00000   0.00003  -0.00004   0.00004  -0.00006
 134        3PZ         0.00006  -0.00003  -0.00004  -0.00006   0.00006
 135        4XX        -0.00001   0.00000  -0.00000   0.00001   0.00002
 136        4YY        -0.00001   0.00000  -0.00000   0.00000   0.00003
 137        4ZZ        -0.00000   0.00000  -0.00001  -0.00000   0.00002
 138        4XY        -0.00000  -0.00000   0.00001   0.00001   0.00001
 139        4XZ        -0.00000   0.00000   0.00000  -0.00000   0.00000
 140        4YZ        -0.00000  -0.00000  -0.00000   0.00001  -0.00000
 141 13  H  1S          0.00003   0.00000  -0.00004  -0.00001  -0.00000
 142        2S         -0.00007   0.00011   0.00006  -0.00007  -0.00017
 143        3PX        -0.00001   0.00000   0.00001  -0.00000  -0.00002
 144        3PY         0.00000  -0.00000  -0.00000  -0.00000   0.00001
 145        3PZ        -0.00000   0.00000   0.00000   0.00000  -0.00001
 146 14  C  1S         -0.00000   0.00000  -0.00000  -0.00000  -0.00000
 147        2S         -0.00000   0.00000   0.00000  -0.00001  -0.00001
 148        2PX         0.00000   0.00000   0.00000   0.00000   0.00000
 149        2PY        -0.00000   0.00000  -0.00000  -0.00000  -0.00000
 150        2PZ         0.00000  -0.00000   0.00000   0.00001   0.00001
 151        3S          0.00005   0.00003   0.00004  -0.00003   0.00011
 152        3PX        -0.00001  -0.00001  -0.00004  -0.00012  -0.00012
 153        3PY        -0.00004   0.00000   0.00003   0.00007  -0.00008
 154        3PZ         0.00004  -0.00002  -0.00000  -0.00026   0.00007
 155        4XX        -0.00000   0.00000  -0.00000   0.00000  -0.00000
 156        4YY        -0.00000   0.00000   0.00000   0.00001  -0.00000
 157        4ZZ        -0.00000   0.00000  -0.00000  -0.00000  -0.00001
 158        4XY         0.00000   0.00000  -0.00000   0.00001   0.00000
 159        4XZ        -0.00000   0.00000  -0.00000   0.00000   0.00000
 160        4YZ         0.00000  -0.00000  -0.00000  -0.00001   0.00000
 161 15  H  1S         -0.00001   0.00000   0.00000   0.00002  -0.00000
 162        2S         -0.00002   0.00001  -0.00002   0.00001  -0.00003
 163        3PX         0.00000  -0.00000  -0.00001  -0.00002   0.00000
 164        3PY         0.00000  -0.00000   0.00000  -0.00002   0.00000
 165        3PZ        -0.00000  -0.00000   0.00000  -0.00001  -0.00000
 166 16  H  1S         -0.00000  -0.00000   0.00000   0.00002   0.00001
 167        2S          0.00000   0.00000   0.00001   0.00005   0.00004
 168        3PX        -0.00000   0.00000   0.00000   0.00000   0.00000
 169        3PY         0.00000   0.00000  -0.00000   0.00000   0.00000
 170        3PZ        -0.00000   0.00000  -0.00000   0.00001  -0.00000
 171 17  P  1S          0.99625   0.00004   0.00001   0.00000   0.00002
 172        2S          0.01417   0.00001   0.00002   0.00003  -0.00005
 173        2PX         0.00002  -0.00000  -0.00006  -0.00001  -0.00000
 174        2PY        -0.00001  -0.00001   0.00000   0.00000   0.00000
 175        2PZ         0.00002   0.00000  -0.00004   0.00001   0.00002
 176        3S         -0.02719   0.00016   0.00009   0.00018   0.00082
 177        3PX        -0.00003   0.00002   0.00010   0.00008   0.00003
 178        3PY         0.00015   0.00006  -0.00012  -0.00013  -0.00003
 179        3PZ        -0.00004  -0.00000   0.00008  -0.00002  -0.00018
 180        4S          0.00285  -0.00039  -0.00296  -0.00048  -0.00360
 181        4PX        -0.00001   0.00015  -0.00167   0.00017  -0.00101
 182        4PY        -0.00029   0.00012   0.00020   0.00028   0.00013
 183        4PZ        -0.00014   0.00006  -0.00033  -0.00015   0.00198
 184        5XX         0.00945  -0.00003   0.00021   0.00004  -0.00025
 185        5YY         0.00941  -0.00008   0.00008   0.00003  -0.00024
 186        5ZZ         0.00946  -0.00004   0.00008  -0.00003  -0.00006
 187        5XY         0.00001  -0.00005   0.00000  -0.00000   0.00005
 188        5XZ        -0.00001  -0.00000   0.00020   0.00000  -0.00005
 189        5YZ         0.00000  -0.00001   0.00005   0.00002  -0.00007
 190 18  P  1S         -0.00004   0.99625   0.00000   0.00000  -0.00000
 191        2S          0.00000   0.01417   0.00001  -0.00001  -0.00002
 192        2PX         0.00001   0.00003  -0.00000  -0.00000   0.00000
 193        2PY         0.00001   0.00001   0.00000   0.00000   0.00001
 194        2PZ        -0.00000   0.00001   0.00000  -0.00001  -0.00001
 195        3S          0.00012  -0.02713   0.00005   0.00001  -0.00007
 196        3PX        -0.00006  -0.00017   0.00003   0.00002  -0.00002
 197        3PY        -0.00006  -0.00006  -0.00001   0.00002  -0.00008
 198        3PZ         0.00004  -0.00003   0.00000   0.00011   0.00007
 199        4S         -0.00023   0.00250  -0.00025   0.00035   0.00046
 200        4PX         0.00003   0.00003   0.00004  -0.00003   0.00018
 201        4PY        -0.00022   0.00014  -0.00025   0.00014   0.00009
 202        4PZ        -0.00000   0.00002   0.00000   0.00031  -0.00010
 203        5XX        -0.00005   0.00940   0.00001   0.00002  -0.00001
 204        5YY        -0.00008   0.00944  -0.00000  -0.00003  -0.00004
 205        5ZZ        -0.00003   0.00944  -0.00000   0.00001  -0.00001
 206        5XY        -0.00004  -0.00002  -0.00001  -0.00001  -0.00002
 207        5XZ        -0.00002  -0.00003  -0.00001  -0.00002   0.00004
 208        5YZ        -0.00001  -0.00001  -0.00001  -0.00001   0.00002
 209 19  O  1S          0.00000   0.00000  -0.00002  -0.00002  -0.00158
 210        2S         -0.00006  -0.00000  -0.00000  -0.00010  -0.00002
 211        2PX        -0.00014  -0.00001  -0.00000  -0.00001   0.00002
 212        2PY         0.00006  -0.00001  -0.00001   0.00002  -0.00003
 213        2PZ         0.00009   0.00001  -0.00003  -0.00000   0.00005
 214        3S          0.00064   0.00005   0.00013   0.00048  -0.00012
 215        3PX         0.00035   0.00002   0.00022   0.00008   0.00008
 216        3PY        -0.00012   0.00003  -0.00001  -0.00014   0.00006
 217        3PZ        -0.00021  -0.00002   0.00008   0.00000  -0.00035
 218        4XX        -0.00011   0.00000  -0.00000  -0.00007   0.00008
 219        4YY        -0.00002  -0.00001   0.00004  -0.00006   0.00005
 220        4ZZ        -0.00003   0.00002   0.00001  -0.00008   0.00006
 221        4XY         0.00010  -0.00001  -0.00001  -0.00002   0.00000
 222        4XZ         0.00011   0.00001  -0.00004   0.00001  -0.00002
 223        4YZ        -0.00006  -0.00001  -0.00002  -0.00001   0.00004
 224 20  O  1S         -0.00002  -0.00000   0.99272  -0.00003  -0.00007
 225        2S         -0.00004  -0.00002   0.02576  -0.00016  -0.00020
 226        2PX         0.00004   0.00001  -0.00046  -0.00002  -0.00003
 227        2PY         0.00001   0.00001  -0.00065   0.00002   0.00000
 228        2PZ         0.00001   0.00000   0.00030  -0.00005   0.00004
 229        3S          0.00075   0.00006   0.01257   0.00086   0.00110
 230        3PX        -0.00032  -0.00003  -0.00033  -0.00001  -0.00003
 231        3PY        -0.00008  -0.00005  -0.00017  -0.00024  -0.00000
 232        3PZ        -0.00013  -0.00000  -0.00041   0.00022  -0.00044
 233        4XX        -0.00018  -0.00001  -0.00820  -0.00010  -0.00014
 234        4YY        -0.00003  -0.00001  -0.00811  -0.00007  -0.00014
 235        4ZZ        -0.00009  -0.00001  -0.00812  -0.00012  -0.00015
 236        4XY        -0.00004   0.00000   0.00000   0.00001  -0.00000
 237        4XZ        -0.00010   0.00000  -0.00002  -0.00003   0.00003
 238        4YZ        -0.00005  -0.00000  -0.00005  -0.00001   0.00005
 239 21  O  1S          0.00002  -0.00000  -0.00004   0.00001   0.99274
 240        2S         -0.00001  -0.00003  -0.00025   0.00002   0.02560
 241        2PX         0.00004   0.00000  -0.00004   0.00000  -0.00019
 242        2PY         0.00004  -0.00000  -0.00000   0.00000  -0.00018
 243        2PZ        -0.00016   0.00000   0.00000   0.00001   0.00064
 244        3S          0.00039   0.00013   0.00142  -0.00010   0.01264
 245        3PX        -0.00008  -0.00003   0.00021  -0.00003  -0.00000
 246        3PY        -0.00005  -0.00002  -0.00012  -0.00001  -0.00037
 247        3PZ         0.00038   0.00001   0.00033  -0.00001   0.00050
 248        4XX         0.00005  -0.00001  -0.00020   0.00003  -0.00814
 249        4YY         0.00003  -0.00001  -0.00013   0.00001  -0.00814
 250        4ZZ        -0.00014  -0.00001  -0.00015   0.00002  -0.00814
 251        4XY        -0.00003  -0.00000  -0.00002   0.00000  -0.00001
 252        4XZ         0.00006  -0.00000  -0.00002  -0.00001   0.00002
 253        4YZ         0.00011  -0.00000  -0.00001   0.00000  -0.00001
 254 22  O  1S          0.00001  -0.00000  -0.00000  -0.00000  -0.00001
 255        2S          0.00002  -0.00005  -0.00000   0.00002  -0.00000
 256        2PX         0.00001  -0.00004   0.00001  -0.00000  -0.00000
 257        2PY         0.00001  -0.00000  -0.00001   0.00000   0.00001
 258        2PZ        -0.00001   0.00012   0.00001  -0.00005  -0.00001
 259        3S         -0.00004   0.00066   0.00002  -0.00001  -0.00001
 260        3PX        -0.00003   0.00015  -0.00004   0.00013   0.00002
 261        3PY        -0.00000   0.00000   0.00004   0.00000  -0.00003
 262        3PZ         0.00004  -0.00038  -0.00003   0.00027   0.00004
 263        4XX         0.00003  -0.00001  -0.00000  -0.00002   0.00002
 264        4YY         0.00002   0.00001   0.00000   0.00002  -0.00000
 265        4ZZ         0.00001  -0.00021   0.00000  -0.00000   0.00000
 266        4XY        -0.00001  -0.00001  -0.00000  -0.00001   0.00000
 267        4XZ         0.00001   0.00010   0.00000   0.00003   0.00001
 268        4YZ        -0.00000   0.00003  -0.00001   0.00001   0.00000
 269 23  O  1S         -0.00000  -0.00000   0.00000  -0.00001  -0.00001
 270        2S         -0.00000  -0.00008   0.00002  -0.00006   0.00005
 271        2PX        -0.00001   0.00003   0.00000  -0.00001   0.00000
 272        2PY        -0.00001  -0.00014  -0.00001  -0.00002   0.00001
 273        2PZ         0.00000  -0.00007   0.00000  -0.00000  -0.00001
 274        3S         -0.00002   0.00077  -0.00013   0.00026  -0.00026
 275        3PX         0.00003  -0.00010  -0.00000   0.00001  -0.00001
 276        3PY         0.00004   0.00039   0.00002   0.00008  -0.00007
 277        3PZ        -0.00002   0.00020  -0.00003  -0.00001   0.00001
 278        4XX        -0.00000  -0.00000   0.00002  -0.00005   0.00004
 279        4YY         0.00001  -0.00019   0.00002  -0.00004   0.00004
 280        4ZZ        -0.00001  -0.00004   0.00002  -0.00005   0.00004
 281        4XY        -0.00000   0.00005   0.00000  -0.00000   0.00000
 282        4XZ        -0.00000   0.00002   0.00000   0.00001   0.00000
 283        4YZ         0.00000  -0.00011  -0.00000   0.00001   0.00000
 284 24  O  1S         -0.00000   0.00000  -0.00001   0.00001   0.00003
 285        2S         -0.00000  -0.00005  -0.00003   0.00003  -0.00003
 286        2PX         0.00001  -0.00009   0.00001   0.00000  -0.00003
 287        2PY         0.00001   0.00010   0.00002   0.00000  -0.00003
 288        2PZ        -0.00001  -0.00009  -0.00000   0.00002  -0.00000
 289        3S          0.00008   0.00061   0.00019  -0.00012   0.00010
 290        3PX        -0.00004   0.00024   0.00000  -0.00001   0.00008
 291        3PY        -0.00006  -0.00028  -0.00007  -0.00001   0.00010
 292        3PZ         0.00003   0.00025   0.00003  -0.00009   0.00001
 293        4XX        -0.00001  -0.00005  -0.00001   0.00001  -0.00003
 294        4YY        -0.00001  -0.00006  -0.00003   0.00003  -0.00005
 295        4ZZ         0.00001  -0.00006  -0.00001   0.00001  -0.00006
 296        4XY        -0.00002   0.00010  -0.00001  -0.00000   0.00002
 297        4XZ        -0.00000  -0.00009  -0.00000  -0.00001   0.00001
 298        4YZ        -0.00001   0.00010  -0.00001   0.00001  -0.00001
 299 25  H  1S         -0.00007  -0.00002   0.00028  -0.00009   0.00007
 300        2S         -0.00018   0.00000  -0.00114  -0.00079  -0.00005
 301        3PX        -0.00003  -0.00000   0.00002   0.00011   0.00001
 302        3PY        -0.00000  -0.00001  -0.00011   0.00013   0.00003
 303        3PZ        -0.00002   0.00000   0.00014   0.00006   0.00000
                           6         7         8         9        10
                           O         O         O         O         O
     Eigenvalues --   -19.02552 -19.01306 -19.00492 -19.00305 -14.21968
   1 1   C  1S          0.00001   0.00000  -0.00001   0.00001   0.00000
   2        2S          0.00002   0.00002  -0.00001  -0.00000  -0.00001
   3        2PX        -0.00001   0.00000   0.00005  -0.00002   0.00001
   4        2PY         0.00007  -0.00000   0.00000   0.00000   0.00000
   5        2PZ         0.00001  -0.00003   0.00002  -0.00001   0.00000
   6        3S          0.00027  -0.00017  -0.00029  -0.00021   0.00002
   7        3PX         0.00000   0.00030  -0.00097   0.00024   0.00004
   8        3PY        -0.00054   0.00014  -0.00012  -0.00041   0.00003
   9        3PZ         0.00022  -0.00002   0.00013   0.00002  -0.00006
  10        4XX         0.00003  -0.00001  -0.00006   0.00003   0.00002
  11        4YY         0.00004  -0.00000  -0.00001   0.00003   0.00000
  12        4ZZ         0.00003  -0.00002  -0.00000  -0.00000   0.00000
  13        4XY         0.00002  -0.00001  -0.00000   0.00004   0.00000
  14        4XZ        -0.00000   0.00002  -0.00004   0.00002   0.00001
  15        4YZ         0.00000   0.00001   0.00001   0.00001   0.00000
  16 2   H  1S          0.00006   0.00004  -0.00006  -0.00000   0.00000
  17        2S          0.00003  -0.00006   0.00028   0.00030  -0.00005
  18        3PX         0.00001  -0.00001   0.00003  -0.00002  -0.00000
  19        3PY         0.00001  -0.00001   0.00000  -0.00001  -0.00000
  20        3PZ        -0.00000   0.00000   0.00002   0.00003  -0.00000
  21 3   H  1S         -0.00006   0.00000  -0.00002   0.00006   0.00000
  22        2S         -0.00028   0.00019  -0.00017  -0.00040  -0.00000
  23        3PX        -0.00002  -0.00001   0.00004   0.00004  -0.00000
  24        3PY        -0.00002   0.00001  -0.00001  -0.00003  -0.00000
  25        3PZ        -0.00000  -0.00000  -0.00000   0.00001   0.00000
  26 4   C  1S         -0.00002  -0.00004  -0.00002  -0.00002  -0.00000
  27        2S         -0.00011  -0.00020  -0.00012  -0.00013  -0.00001
  28        2PX         0.00004   0.00002   0.00003  -0.00001  -0.00000
  29        2PY        -0.00001   0.00004  -0.00006   0.00003  -0.00000
  30        2PZ        -0.00004   0.00003   0.00001  -0.00000   0.00000
  31        3S          0.00050   0.00144   0.00051   0.00078   0.00006
  32        3PX        -0.00043  -0.00040  -0.00079  -0.00013   0.00002
  33        3PY         0.00052  -0.00066   0.00053  -0.00042   0.00000
  34        3PZ         0.00009   0.00028  -0.00007  -0.00059  -0.00000
  35        4XX        -0.00001  -0.00003   0.00003   0.00001  -0.00000
  36        4YY         0.00003  -0.00006  -0.00002  -0.00002   0.00000
  37        4ZZ        -0.00004   0.00000  -0.00004  -0.00005  -0.00000
  38        4XY        -0.00001  -0.00000   0.00002   0.00003  -0.00000
  39        4XZ         0.00001   0.00004   0.00002  -0.00001   0.00000
  40        4YZ         0.00001  -0.00000  -0.00001   0.00004  -0.00000
  41 5   O  1S         -0.00004   0.00000  -0.00000  -0.00004   0.00000
  42        2S         -0.00012   0.00001   0.00000  -0.00013   0.00000
  43        2PX         0.00002  -0.00002  -0.00001   0.00002   0.00000
  44        2PY        -0.00004   0.00003  -0.00001   0.00002  -0.00000
  45        2PZ         0.00001  -0.00004  -0.00000   0.00004  -0.00000
  46        3S          0.00043   0.00004   0.00005   0.00052  -0.00002
  47        3PX        -0.00005  -0.00017   0.00012  -0.00009  -0.00001
  48        3PY         0.00016  -0.00022   0.00001   0.00001  -0.00000
  49        3PZ        -0.00010   0.00043  -0.00005  -0.00022   0.00001
  50        4XX        -0.00011   0.00004  -0.00001  -0.00010   0.00000
  51        4YY        -0.00006   0.00002  -0.00001  -0.00009   0.00000
  52        4ZZ        -0.00008  -0.00005   0.00003  -0.00008   0.00000
  53        4XY        -0.00003   0.00003   0.00000   0.00001   0.00000
  54        4XZ        -0.00001  -0.00007  -0.00002   0.00002   0.00000
  55        4YZ         0.00000   0.00000   0.00001  -0.00001   0.00000
  56 6   H  1S         -0.00006  -0.00016   0.00003  -0.00007  -0.00000
  57        2S          0.00015  -0.00072  -0.00003   0.00021  -0.00001
  58        3PX         0.00003  -0.00002   0.00001   0.00002  -0.00000
  59        3PY        -0.00000  -0.00001   0.00001  -0.00001  -0.00000
  60        3PZ         0.00000   0.00003   0.00001  -0.00001   0.00000
  61 7   C  1S          0.00001   0.00000  -0.00002   0.00000   0.00000
  62        2S          0.00003   0.00002  -0.00008   0.00001   0.00007
  63        2PX        -0.00002  -0.00000   0.00004   0.00000  -0.00005
  64        2PY         0.00002  -0.00000   0.00000   0.00001  -0.00001
  65        2PZ         0.00001  -0.00000   0.00000  -0.00000  -0.00000
  66        3S         -0.00003  -0.00022   0.00067  -0.00007  -0.00075
  67        3PX         0.00024   0.00012  -0.00095   0.00004  -0.00023
  68        3PY         0.00025   0.00003  -0.00012   0.00012  -0.00025
  69        3PZ        -0.00021   0.00003  -0.00022  -0.00002   0.00030
  70        4XX         0.00003  -0.00000   0.00001  -0.00000  -0.00009
  71        4YY         0.00002   0.00001  -0.00004   0.00000  -0.00001
  72        4ZZ         0.00003   0.00000  -0.00003   0.00000   0.00001
  73        4XY        -0.00001   0.00000   0.00000  -0.00001  -0.00004
  74        4XZ        -0.00000  -0.00000   0.00002  -0.00000   0.00003
  75        4YZ        -0.00001   0.00000   0.00000  -0.00000  -0.00001
  76 8   C  1S          0.00000  -0.00000  -0.00000   0.00000  -0.00000
  77        2S          0.00000  -0.00000  -0.00001   0.00001  -0.00000
  78        2PX        -0.00001   0.00000  -0.00000  -0.00000  -0.00001
  79        2PY         0.00000  -0.00001   0.00000   0.00000  -0.00001
  80        2PZ         0.00001   0.00000  -0.00000   0.00001   0.00001
  81        3S          0.00004   0.00002   0.00031  -0.00007  -0.00002
  82        3PX        -0.00011  -0.00003   0.00029  -0.00002   0.00015
  83        3PY         0.00001   0.00003   0.00014   0.00002   0.00012
  84        3PZ        -0.00009  -0.00004  -0.00008  -0.00011  -0.00012
  85        4XX         0.00001   0.00000  -0.00001  -0.00000  -0.00003
  86        4YY         0.00001  -0.00000  -0.00000   0.00000  -0.00001
  87        4ZZ         0.00000  -0.00000   0.00000   0.00001  -0.00001
  88        4XY        -0.00000  -0.00000   0.00000  -0.00000   0.00000
  89        4XZ         0.00000   0.00000  -0.00001  -0.00000  -0.00001
  90        4YZ         0.00000   0.00000  -0.00001   0.00000   0.00000
  91 9   C  1S          0.00001   0.00000  -0.00000   0.00000   0.00004
  92        2S          0.00004   0.00001  -0.00001   0.00001   0.00035
  93        2PX        -0.00002  -0.00000  -0.00000  -0.00001   0.00022
  94        2PY         0.00003   0.00000  -0.00000  -0.00000   0.00005
  95        2PZ         0.00001   0.00000   0.00000   0.00000   0.00001
  96        3S         -0.00047  -0.00002   0.00031  -0.00001   0.00011
  97        3PX         0.00010   0.00001   0.00018   0.00012  -0.00070
  98        3PY        -0.00000   0.00000  -0.00009   0.00004  -0.00038
  99        3PZ        -0.00022  -0.00002   0.00020  -0.00007   0.00031
 100        4XX         0.00002   0.00000  -0.00000   0.00002  -0.00020
 101        4YY         0.00002   0.00000   0.00000   0.00001   0.00001
 102        4ZZ         0.00002  -0.00000   0.00001   0.00001   0.00003
 103        4XY        -0.00001  -0.00000   0.00000  -0.00000   0.00000
 104        4XZ         0.00001  -0.00000   0.00000   0.00001  -0.00007
 105        4YZ         0.00001   0.00000  -0.00001  -0.00000  -0.00007
 106 10  C  1S         -0.00000   0.00000  -0.00000  -0.00000  -0.00000
 107        2S         -0.00000   0.00000  -0.00000  -0.00000   0.00006
 108        2PX         0.00000  -0.00000   0.00001   0.00000  -0.00000
 109        2PY         0.00000   0.00000  -0.00000  -0.00000  -0.00003
 110        2PZ        -0.00000  -0.00000   0.00001  -0.00000   0.00004
 111        3S          0.00008  -0.00002  -0.00025   0.00002  -0.00061
 112        3PX        -0.00006  -0.00001   0.00010  -0.00006  -0.00020
 113        3PY        -0.00001  -0.00004   0.00001  -0.00002  -0.00017
 114        3PZ         0.00002   0.00004   0.00002   0.00004   0.00018
 115        4XX        -0.00000   0.00000  -0.00000   0.00000   0.00002
 116        4YY        -0.00000   0.00000  -0.00000  -0.00000  -0.00005
 117        4ZZ        -0.00000   0.00000  -0.00000  -0.00000  -0.00008
 118        4XY        -0.00000   0.00000   0.00000  -0.00000   0.00000
 119        4XZ        -0.00000  -0.00000   0.00000  -0.00000   0.00001
 120        4YZ        -0.00000   0.00000  -0.00000  -0.00000   0.00005
 121 11  H  1S         -0.00000  -0.00000   0.00002  -0.00001   0.00002
 122        2S          0.00002   0.00002   0.00008   0.00009   0.00009
 123        3PX         0.00000   0.00000  -0.00001   0.00001   0.00000
 124        3PY         0.00000   0.00000  -0.00000   0.00001   0.00000
 125        3PZ         0.00000  -0.00000  -0.00000  -0.00000  -0.00000
 126 12  N  1S         -0.00001   0.00000   0.00000   0.00000   0.99262
 127        2S         -0.00002   0.00000   0.00002   0.00001   0.03511
 128        2PX         0.00001  -0.00000   0.00000  -0.00000  -0.00077
 129        2PY        -0.00001  -0.00000   0.00000   0.00000  -0.00076
 130        2PZ        -0.00001  -0.00000  -0.00000  -0.00000   0.00083
 131        3S          0.00016  -0.00001  -0.00024  -0.00006   0.00411
 132        3PX        -0.00007   0.00001   0.00008   0.00006   0.00030
 133        3PY         0.00002   0.00000   0.00002  -0.00000   0.00033
 134        3PZ         0.00007   0.00000  -0.00001   0.00004  -0.00037
 135        4XX        -0.00001   0.00000   0.00001  -0.00000  -0.00826
 136        4YY        -0.00002   0.00000   0.00001   0.00000  -0.00827
 137        4ZZ        -0.00001   0.00000   0.00001   0.00000  -0.00827
 138        4XY        -0.00001  -0.00000   0.00000  -0.00000  -0.00005
 139        4XZ        -0.00001  -0.00000  -0.00000  -0.00000   0.00007
 140        4YZ        -0.00000   0.00000  -0.00000  -0.00000   0.00005
 141 13  H  1S          0.00003  -0.00000   0.00001   0.00001  -0.00002
 142        2S         -0.00008   0.00000   0.00007  -0.00007  -0.00001
 143        3PX        -0.00001  -0.00000  -0.00000  -0.00001  -0.00006
 144        3PY         0.00001   0.00000   0.00000   0.00000   0.00002
 145        3PZ        -0.00000   0.00000  -0.00000  -0.00000  -0.00005
 146 14  C  1S         -0.00000  -0.00000  -0.00000  -0.00000   0.00004
 147        2S         -0.00001  -0.00000  -0.00000  -0.00000   0.00036
 148        2PX         0.00000  -0.00000   0.00000  -0.00000  -0.00006
 149        2PY        -0.00000  -0.00000   0.00000   0.00000   0.00012
 150        2PZ         0.00000   0.00000  -0.00000   0.00000  -0.00019
 151        3S         -0.00001   0.00004   0.00004   0.00001   0.00001
 152        3PX         0.00002  -0.00001  -0.00007  -0.00000  -0.00018
 153        3PY        -0.00002  -0.00001  -0.00000  -0.00004  -0.00043
 154        3PZ         0.00001   0.00001  -0.00001   0.00004   0.00056
 155        4XX        -0.00000   0.00000   0.00000  -0.00000   0.00002
 156        4YY        -0.00000  -0.00000  -0.00000   0.00000  -0.00004
 157        4ZZ         0.00000   0.00000  -0.00000  -0.00000  -0.00013
 158        4XY         0.00000   0.00000   0.00000   0.00000   0.00009
 159        4XZ        -0.00000  -0.00000  -0.00000  -0.00000  -0.00012
 160        4YZ        -0.00000   0.00000  -0.00000   0.00000   0.00006
 161 15  H  1S         -0.00000  -0.00000   0.00001  -0.00000   0.00003
 162        2S         -0.00000  -0.00002   0.00001  -0.00001  -0.00001
 163        3PX         0.00000   0.00000  -0.00000   0.00000  -0.00001
 164        3PY         0.00000   0.00000  -0.00000  -0.00000   0.00001
 165        3PZ        -0.00000   0.00000  -0.00000  -0.00000  -0.00001
 166 16  H  1S         -0.00000  -0.00000   0.00000  -0.00000  -0.00001
 167        2S         -0.00000  -0.00000   0.00002  -0.00000  -0.00003
 168        3PX        -0.00000   0.00000   0.00000   0.00000   0.00006
 169        3PY         0.00000   0.00000  -0.00000   0.00000  -0.00002
 170        3PZ        -0.00000  -0.00000  -0.00000  -0.00000   0.00004
 171 17  P  1S          0.00001  -0.00000  -0.00000   0.00000   0.00000
 172        2S         -0.00007  -0.00004  -0.00001   0.00001   0.00000
 173        2PX         0.00002  -0.00001  -0.00000   0.00000  -0.00000
 174        2PY         0.00000  -0.00000  -0.00000   0.00000  -0.00000
 175        2PZ        -0.00001   0.00000   0.00001  -0.00001   0.00000
 176        3S          0.00063  -0.00011  -0.00007   0.00003   0.00001
 177        3PX        -0.00014   0.00006   0.00003  -0.00001  -0.00000
 178        3PY         0.00001   0.00006   0.00003  -0.00004  -0.00000
 179        3PZ         0.00013  -0.00004  -0.00002   0.00004  -0.00000
 180        4S         -0.00281   0.00079  -0.00042  -0.00004  -0.00005
 181        4PX         0.00176  -0.00021   0.00015   0.00034  -0.00003
 182        4PY        -0.00040  -0.00030   0.00011  -0.00003   0.00002
 183        4PZ        -0.00156   0.00018   0.00021  -0.00014   0.00001
 184        5XX        -0.00009  -0.00004   0.00003   0.00001  -0.00000
 185        5YY        -0.00020  -0.00003  -0.00003   0.00001  -0.00000
 186        5ZZ        -0.00019  -0.00004  -0.00003   0.00002  -0.00000
 187        5XY        -0.00006  -0.00001   0.00001   0.00000  -0.00000
 188        5XZ        -0.00009   0.00000   0.00005  -0.00000  -0.00000
 189        5YZ         0.00006   0.00002   0.00004  -0.00005   0.00000
 190 18  P  1S         -0.00000   0.00001   0.00001   0.00001  -0.00000
 191        2S         -0.00001  -0.00004  -0.00005  -0.00006  -0.00000
 192        2PX         0.00000   0.00002   0.00001  -0.00001   0.00000
 193        2PY         0.00000  -0.00000  -0.00002   0.00002   0.00000
 194        2PZ         0.00000  -0.00003   0.00002   0.00001  -0.00000
 195        3S         -0.00004   0.00053   0.00064   0.00055  -0.00001
[...]
 202         V                 1.879488          2.975613
 203         V                 1.888299          3.028404
 204         V                 1.896550          3.001224
 205         V                 1.902035          2.983948
 206         V                 1.903098          2.974246
 207         V                 1.907984          2.891614
 208         V                 1.917610          2.921682
 209         V                 1.926051          2.932630
 210         V                 1.929371          3.088218
 211         V                 1.942141          3.004439
 212         V                 1.950650          3.051017
 213         V                 1.953607          2.967305
 214         V                 1.965203          3.241935
 215         V                 1.972485          3.069733
 216         V                 1.983465          3.321240
 217         V                 2.014362          3.151942
 218         V                 2.027064          3.224723
 219         V                 2.045302          3.201169
 220         V                 2.054264          3.217700
 221         V                 2.062908          3.179127
 222         V                 2.074863          3.254411
 223         V                 2.095974          3.388621
 224         V                 2.102037          3.343792
 225         V                 2.122647          3.581192
 226         V                 2.133983          3.350898
 227         V                 2.175671          3.451945
 228         V                 2.183378          3.336263
 229         V                 2.199349          3.362509
 230         V                 2.212834          3.429136
 231         V                 2.213762          3.478303
 232         V                 2.254269          3.503468
 233         V                 2.260696          3.416019
 234         V                 2.285418          3.467794
 235         V                 2.320052          3.524427
 236         V                 2.341651          3.598318
 237         V                 2.360736          3.374696
 238         V                 2.372663          3.587072
 239         V                 2.390192          3.580819
 240         V                 2.396022          3.604201
 241         V                 2.403817          3.528560
 242         V                 2.427504          3.626963
 243         V                 2.441311          3.563676
 244         V                 2.453065          3.650641
 245         V                 2.462909          3.618281
 246         V                 2.468494          3.648880
 247         V                 2.497934          3.731466
 248         V                 2.511744          3.870123
 249         V                 2.553501          4.041354
 250         V                 2.567359          4.349145
 251         V                 2.575487          3.975964
 252         V                 2.582287          3.654162
 253         V                 2.602224          3.829174
 254         V                 2.618904          3.651708
 255         V                 2.657316          3.791926
 256         V                 2.686501          3.984640
 257         V                 2.701091          3.654193
 258         V                 2.715505          4.159743
 259         V                 2.737515          3.902233
 260         V                 2.759568          4.149272
 261         V                 2.761904          3.987431
 262         V                 2.775812          3.932123
 263         V                 2.794368          4.072890
 264         V                 2.810005          4.075911
 265         V                 2.834646          4.121682
 266         V                 2.843869          4.516647
 267         V                 2.868700          4.457129
 268         V                 2.890850          4.744033
 269         V                 2.901791          4.721265
 270         V                 2.913526          4.792635
 271         V                 2.927342          4.093644
 272         V                 2.945629          4.383985
 273         V                 3.053284          4.437835
 274         V                 3.066492          4.499499
 275         V                 3.080767          4.524109
 276         V                 3.152018          4.645797
 277         V                 3.259812          5.070687
 278         V                 3.300626          4.932059
 279         V                 3.346995          5.005388
 280         V                 3.386650          5.098219
 281         V                 3.471404          5.232737
 282         V                 3.499549          6.075354
 283         V                 3.524722          5.318661
 284         V                 3.544796          7.284421
 285         V                 3.562147          5.820927
 286         V                 3.609740          8.884509
 287         V                 3.676313          9.798713
 288         V                 3.876379          7.957722
 289         V                 3.878238          8.479539
 290         V                 3.895895         10.145709
 291         V                 3.921022          9.947972
 292         V                 3.976062         10.556377
 293         V                 4.122190         10.760928
 294         V                 4.138494         10.507791
 295         V                 4.201452         10.099617
 296         V                 4.259696         10.337502
 297         V                 4.306281         10.497605
 298         V                 4.320435         10.283352
 299         V                 4.432177         10.187047
 300         V                 4.446248         10.302056
 301         V                 4.559350         10.133785
 302         V                 4.750486         10.609770
 303         V                 4.851470         10.177469
 Total kinetic energy from orbitals= 1.526251837100D+03
                          Isotropic Fermi Contact Couplings
        Atom                 a.u.       MegaHertz       Gauss      10(-4) cm-1
     1  C(13)             -0.00134      -1.50950      -0.53863      -0.50352
     2  H(1)              -0.00008      -0.34532      -0.12322      -0.11519
     3  H(1)               0.00048       2.13864       0.76312       0.71337
     4  C(13)              0.00713       8.01994       2.86171       2.67516
     5  O(17)              0.00783      -4.74650      -1.69367      -1.58326
     6  H(1)               0.00049       2.20377       0.78636       0.73510
     7  C(13)             -0.01055     -11.86098      -4.23229      -3.95640
     8  C(13)              0.04842      54.43102      19.42234      18.15623
     9  C(13)              0.00723       8.13329       2.90216       2.71297
    10  C(13)             -0.00904     -10.15974      -3.62525      -3.38892
    11  H(1)              -0.00771     -34.47615     -12.30195     -11.50001
    12  N(14)              0.06119      19.77112       7.05483       6.59493
    13  H(1)              -0.00294     -13.14489      -4.69042      -4.38466
    14  C(13)              0.00255       2.86540       1.02245       0.95579
    15  H(1)              -0.00066      -2.95065      -1.05286      -0.98423
    16  H(1)              -0.00220      -9.85146      -3.51525      -3.28609
    17  P(31)             -0.00038      -0.69490      -0.24796      -0.23179
    18  P(31)              0.00118       2.12959       0.75989       0.71035
    19  O(17)             -0.00009       0.05582       0.01992       0.01862
    20  O(17)             -0.00015       0.09272       0.03308       0.03093
    21  O(17)              0.00215      -1.30304      -0.46496      -0.43465
    22  O(17)             -0.00009       0.05388       0.01923       0.01797
    23  O(17)              0.00096      -0.58432      -0.20850      -0.19491
    24  O(17)              0.00019      -0.11755      -0.04194      -0.03921
    25  H(1)              -0.00002      -0.06774      -0.02417      -0.02259
 --------------------------------------------------------
       Center         ----  Spin Dipole Couplings  ----
                      3XX-RR        3YY-RR        3ZZ-RR
 --------------------------------------------------------
     1   Atom        0.005397     -0.003280     -0.002118
     2   Atom        0.004358     -0.003174     -0.001184
     3   Atom        0.004171     -0.002576     -0.001595
     4   Atom        0.005831     -0.002647     -0.003184
     5   Atom        0.010314     -0.005813     -0.004500
     6   Atom        0.002400     -0.001476     -0.000924
     7   Atom       -0.012058      0.011109      0.000949
     8   Atom       -0.214390      0.219480     -0.005090
     9   Atom       -0.056033      0.067098     -0.011064
    10   Atom       -0.003863      0.009128     -0.005266
    11   Atom       -0.012394      0.013031     -0.000637
    12   Atom       -0.366005      0.398857     -0.032852
    13   Atom       -0.007811     -0.000557      0.008367
    14   Atom       -0.050669      0.048926      0.001743
    15   Atom       -0.001784     -0.001858      0.003643
    16   Atom        0.012414     -0.005744     -0.006670
    17   Atom        0.002269     -0.000822     -0.001447
    18   Atom        0.002310     -0.000896     -0.001414
    19   Atom        0.000739     -0.000586     -0.000153
    20   Atom       -0.000868     -0.003309      0.004177
    21   Atom        0.002800      0.000605     -0.003405
    22   Atom        0.000128     -0.001240      0.001112
    23   Atom        0.002597     -0.001229     -0.001368
    24   Atom        0.001865     -0.000936     -0.000929
    25   Atom        0.000310      0.001057     -0.001367
 --------------------------------------------------------
                        XY            XZ            YZ
 --------------------------------------------------------
     1   Atom        0.000610      0.001871     -0.001580
     2   Atom        0.000088      0.003700      0.000240
     3   Atom        0.002664      0.002851      0.000322
     4   Atom       -0.001798     -0.000928     -0.000036
     5   Atom       -0.001895     -0.002654      0.000507
     6   Atom        0.000067     -0.001398     -0.000032
     7   Atom       -0.004812     -0.001863      0.005656
     8   Atom       -0.120835     -0.095754      0.331358
     9   Atom       -0.031718     -0.022890      0.103675
    10   Atom       -0.004425     -0.005955      0.018011
    11   Atom        0.018219     -0.027913     -0.005861
    12   Atom       -0.193320     -0.132836      0.555159
    13   Atom       -0.006365      0.007405     -0.007031
    14   Atom       -0.026554     -0.011164      0.059619
    15   Atom       -0.002010      0.003856     -0.004855
    16   Atom        0.001610      0.003856      0.002346
    17   Atom       -0.002114     -0.000127      0.000160
    18   Atom        0.001049      0.000558      0.000254
    19   Atom       -0.000687     -0.000453      0.000294
    20   Atom       -0.001743     -0.005717     -0.000328
    21   Atom       -0.005171      0.000321     -0.000308
    22   Atom       -0.000406      0.000443     -0.000319
    23   Atom        0.001079      0.000587      0.000143
    24   Atom       -0.000153      0.000578     -0.000024
    25   Atom       -0.003719     -0.002446      0.001614
 --------------------------------------------------------


 ---------------------------------------------------------------------------------
              Anisotropic Spin Dipole Couplings in Principal Axis System
 ---------------------------------------------------------------------------------

       Atom             a.u.   MegaHertz   Gauss  10(-4) cm-1        Axes

              Baa    -0.0046    -0.622    -0.222    -0.208 -0.1604  0.7783  0.6070
     1 C(13)  Bbb    -0.0012    -0.162    -0.058    -0.054 -0.1581 -0.6273  0.7625
              Bcc     0.0058     0.784     0.280     0.262  0.9743  0.0264  0.2237
 
              Baa    -0.0033    -1.758    -0.627    -0.587  0.2355  0.8292 -0.5069
     2 H(1)   Bbb    -0.0029    -1.557    -0.555    -0.519 -0.3813  0.5586  0.7366
              Bcc     0.0062     3.315     1.183     1.106  0.8939  0.0198  0.4477
 
              Baa    -0.0038    -2.028    -0.724    -0.677 -0.4201  0.8013  0.4260
     3 H(1)   Bbb    -0.0023    -1.235    -0.441    -0.412 -0.1524 -0.5251  0.8373
              Bcc     0.0061     3.264     1.165     1.089  0.8946  0.2868  0.3427
 
              Baa    -0.0034    -0.456    -0.163    -0.152  0.1786  0.4705  0.8641
     4 C(13)  Bbb    -0.0029    -0.387    -0.138    -0.129  0.1248  0.8603 -0.4943
              Bcc     0.0063     0.843     0.301     0.281  0.9760 -0.1962 -0.0949
 
              Baa    -0.0061     0.439     0.157     0.146  0.0856  0.9813 -0.1724
     5 O(17)  Bbb    -0.0049     0.357     0.127     0.119  0.1880  0.1540  0.9700
              Bcc     0.0110    -0.796    -0.284    -0.266  0.9784 -0.1155 -0.1713
 
              Baa    -0.0015    -0.789    -0.281    -0.263  0.0345  0.9891  0.1432
     6 H(1)   Bbb    -0.0014    -0.764    -0.273    -0.255  0.3413 -0.1463  0.9285
              Bcc     0.0029     1.553     0.554     0.518  0.9393  0.0169 -0.3426
 
              Baa    -0.0131    -1.752    -0.625    -0.585  0.9816  0.1821  0.0570
     7 C(13)  Bbb    -0.0016    -0.210    -0.075    -0.070  0.0211 -0.4006  0.9160
              Bcc     0.0146     1.963     0.700     0.655 -0.1897  0.8980  0.3971
 
              Baa    -0.2531   -33.959   -12.117   -11.328  0.8019 -0.1917  0.5658
     8 C(13)  Bbb    -0.2376   -31.888   -11.378   -10.637 -0.5580 -0.5787  0.5948
              Bcc     0.4907    65.847    23.496    21.964 -0.2134  0.7927  0.5710
 
              Baa    -0.0828   -11.112    -3.965    -3.707  0.0392 -0.5627  0.8257
     9 C(13)  Bbb    -0.0636    -8.529    -3.043    -2.845  0.9811  0.1786  0.0751
              Bcc     0.1464    19.641     7.009     6.552 -0.1897  0.8071  0.5591
 
              Baa    -0.0179    -2.406    -0.859    -0.803  0.1875 -0.5228  0.8316
    10 C(13)  Bbb    -0.0052    -0.701    -0.250    -0.234  0.9493  0.3138 -0.0168
              Bcc     0.0232     3.107     1.109     1.036 -0.2522  0.7926  0.5552
 
              Baa    -0.0374   -19.961    -7.122    -6.658  0.7935 -0.2207  0.5671
    11 H(1)   Bbb     0.0027     1.417     0.505     0.473 -0.2308  0.7532  0.6160
              Bcc     0.0348    18.544     6.617     6.186  0.5631  0.6197 -0.5467
 
              Baa    -0.4129   -15.926    -5.683    -5.312  0.5278 -0.3902  0.7544
    12 N(14)  Bbb    -0.4119   -15.886    -5.669    -5.299  0.8271  0.4382 -0.3520
              Bcc     0.8248    31.813    11.352    10.612 -0.1933  0.8097  0.5540
 
              Baa    -0.0121    -6.451    -2.302    -2.152  0.9042  0.3789 -0.1971
    13 H(1)   Bbb    -0.0040    -2.131    -0.760    -0.711 -0.2067  0.7921  0.5743
              Bcc     0.0161     8.582     3.062     2.863  0.3737 -0.4786  0.7945
 
              Baa    -0.0578    -7.755    -2.767    -2.587  0.9422  0.3081 -0.1319
    14 C(13)  Bbb    -0.0371    -4.985    -1.779    -1.663  0.2756 -0.4884  0.8279
              Bcc     0.0949    12.740     4.546     4.249 -0.1907  0.8164  0.5451
 
              Baa    -0.0047    -2.519    -0.899    -0.840 -0.1611  0.8195  0.5500
    15 H(1)   Bbb    -0.0036    -1.929    -0.688    -0.643  0.9047  0.3453 -0.2496
              Bcc     0.0083     4.448     1.587     1.484  0.3945 -0.4573  0.7970
 
              Baa    -0.0088    -4.698    -1.676    -1.567 -0.1049 -0.5696  0.8152
    16 H(1)   Bbb    -0.0046    -2.441    -0.871    -0.814 -0.2006  0.8150  0.5436
              Bcc     0.0134     7.139     2.548     2.381  0.9740  0.1065  0.1998
 
              Baa    -0.0019    -0.413    -0.147    -0.138  0.4393  0.8795 -0.1829
    17 P(31)  Bbb    -0.0014    -0.311    -0.111    -0.104  0.1169  0.1459  0.9824
              Bcc     0.0033     0.724     0.258     0.242  0.8907 -0.4529 -0.0388
 
              Baa    -0.0015    -0.330    -0.118    -0.110 -0.0618 -0.2835  0.9570
    18 P(31)  Bbb    -0.0012    -0.257    -0.092    -0.086 -0.3146  0.9155  0.2509
              Bcc     0.0027     0.586     0.209     0.196  0.9472  0.2856  0.1458
 
              Baa    -0.0009     0.065     0.023     0.022  0.3465  0.9252 -0.1550
    19 O(17)  Bbb    -0.0003     0.025     0.009     0.008  0.3907  0.0079  0.9205
              Bcc     0.0012    -0.089    -0.032    -0.030  0.8528 -0.3795 -0.3588
 
              Baa    -0.0057     0.414     0.148     0.138  0.7050  0.5670  0.4259
    20 O(17)  Bbb    -0.0022     0.161     0.057     0.054 -0.4456  0.8214 -0.3560
              Bcc     0.0079    -0.575    -0.205    -0.192 -0.5517  0.0612  0.8318
 
              Baa    -0.0036     0.260     0.093     0.087  0.6070  0.7639  0.2192
    21 O(17)  Bbb    -0.0034     0.247     0.088     0.082 -0.1704 -0.1444  0.9747
              Bcc     0.0070    -0.507    -0.181    -0.169  0.7763 -0.6290  0.0425
 
              Baa    -0.0014     0.099     0.035     0.033  0.2386  0.9677  0.0818
    22 O(17)  Bbb     0.0000    -0.001    -0.000    -0.000  0.8925 -0.1853 -0.4113
              Bcc     0.0014    -0.098    -0.035    -0.033  0.3829 -0.1711  0.9078
 
              Baa    -0.0015     0.110     0.039     0.037 -0.2728  0.9470  0.1695
    23 O(17)  Bbb    -0.0015     0.105     0.037     0.035 -0.0881 -0.2000  0.9758
              Bcc     0.0030    -0.215    -0.077    -0.072  0.9580  0.2513  0.1380
 
              Baa    -0.0010     0.076     0.027     0.025 -0.1976 -0.0636  0.9782
    24 O(17)  Bbb    -0.0009     0.068     0.024     0.023  0.0392  0.9966  0.0727
              Bcc     0.0020    -0.144    -0.051    -0.048  0.9795 -0.0527  0.1945
 
              Baa    -0.0035    -1.879    -0.671    -0.627  0.7401  0.4143  0.5298
    25 H(1)   Bbb    -0.0021    -1.103    -0.393    -0.368 -0.1940 -0.6227  0.7580
              Bcc     0.0056     2.982     1.064     0.995 -0.6439  0.6638  0.3804
 

 ---------------------------------------------------------------------------------


 Test job not archived.
 1\1\GINC-BATAGIN1\SP\UB3LYP\6-31G(d,p)\C7H8N1O7P2(4-,2)\ORISON\08-Feb-
 2021\0\\#t B3LYP/6-31G(d,p) scrf=(solvent=water) # Gfinput IOP(6/7=3) 
 Pop=hirshfeld Density Test # Units(Ang,Deg)\\ris-1-3dp-opt-g09.log\\-4
 ,2\C,0,0.34401,-0.81685,-0.79732\H,0,0.18502,-0.4238,-1.80609\H,0,0.10
 652,-1.88524,-0.83502\C,0,-0.72798,-0.18407,0.12339\O,0,-0.45089,-0.54
 928,1.50739\H,0,-1.3804,-0.80428,1.79039\C,0,1.79732,-0.64509,-0.42568
 \C,0,2.36088,-1.28439,0.68795\C,0,2.67521,0.11002,-1.21688\C,0,3.71914
 ,-1.13039,0.95998\H,0,1.72703,-1.882,1.33407\N,0,3.98634,0.26637,-0.98
 01\H,0,2.28209,0.62611,-2.09148\C,0,4.49071,-0.34905,0.10016\H,0,4.177
 13,-1.61272,1.81851\H,0,5.55605,-0.21532,0.28196\P,0,-0.67888,1.68546,
 0.08109\P,0,-2.43929,-0.99552,-0.23769\O,0,-1.84705,2.32882,0.81227\O,
 0,0.67663,1.88771,1.06107\O,0,-0.3209,2.20643,-1.30282\O,0,-2.93123,-1
 .14432,1.24251\O,0,-2.13975,-2.35232,-0.90779\O,0,-3.28137,-0.04581,-1
 .10617\H,0,0.61546,1.13242,1.67605\\Version=EM64L-G16RevA.03\State=2-A
 \HF=-1536.1391247\S2=0.758612\S2-1=0.\S2A=0.750037\RMSD=6.791e-09\Dipo
 le=4.0123112,-1.050904,1.7862946\Quadrupole=-50.4628825,11.7275477,38.
 7353348,-7.0168241,3.7291197,0.047648\PG=C01 [X(C7H8N1O7P2)]\\@


 IF YOU WISH TO UNDERSTAND THE FRAGRANCE OF THE ROSE, 
 OR THE TENACITY OF THE OAK; 
 IF YOU ARE NOT SATISFIED UNTIL YOU KNOW THE SECRET PATHS 
 BY WHICH THE SUNSHINE AND THE AIR ACHIEVE THESE WONDERS; 
 IF YOU WISH TO SEE THE PATTERN WHICH UNDERLIES ONE LARGE FIELD OF 
 HUMAN EXPERIENCE AND HUMAN MEASUREMENT, THEN TAKE UP CHEMISTRY.

                                         -- C. A. COULSON, 1973.
 Job cpu time:       0 days  0 hours 23 minutes 55.2 seconds.
 Elapsed time:       0 days  0 hours  2 minutes 59.9 seconds.
 File lengths (MBytes):  RWF=    169 Int=      0 D2E=      0 Chk=      8 Scr=      1
 Normal termination of Gaussian 16 at Mon Feb  8 14:56:33 2021.
