 Entering Gaussian System, Link 0=g16
 Input=ris-3dp_neutral_scf_g09.com
 Output=ris-3dp_neutral_scf_g09.log
 Initial command:
 /opt/g16//g16/l1.exe "/home/orison/scrgauss/Gau-14912.inp" -scrdir="/home/orison/scrgauss/"
 Entering Link 1 = /opt/g16//g16/l1.exe PID=     14914.
  
 Copyright (c) 1988,1990,1992,1993,1995,1998,2003,2009,2016,
            Gaussian, Inc.  All Rights Reserved.
  
 This is part of the Gaussian(R) 16 program.  It is based on
 the Gaussian(R) 09 system (copyright 2009, Gaussian, Inc.),
 the Gaussian(R) 03 system (copyright 2003, Gaussian, Inc.),
 the Gaussian(R) 98 system (copyright 1998, Gaussian, Inc.),
 the Gaussian(R) 94 system (copyright 1995, Gaussian, Inc.),
 the Gaussian 92(TM) system (copyright 1992, Gaussian, Inc.),
 the Gaussian 90(TM) system (copyright 1990, Gaussian, Inc.),
 the Gaussian 88(TM) system (copyright 1988, Gaussian, Inc.),
 the Gaussian 86(TM) system (copyright 1986, Carnegie Mellon
 University), and the Gaussian 82(TM) system (copyright 1983,
 Carnegie Mellon University). Gaussian is a federally registered
 trademark of Gaussian, Inc.
  
 This software contains proprietary and confidential information,
 including trade secrets, belonging to Gaussian, Inc.
  
 This software is provided under written license and may be
 used, copied, transmitted, or stored only in accord with that
 written license.
  
 The following legend is applicable only to US Government
 contracts under FAR:
  
                    RESTRICTED RIGHTS LEGEND
  
 Use, reproduction and disclosure by the US Government is
 subject to restrictions as set forth in subparagraphs (a)
 and (c) of the Commercial Computer Software - Restricted
 Rights clause in FAR 52.227-19.
  
 Gaussian, Inc.
 340 Quinnipiac St., Bldg. 40, Wallingford CT 06492
  
  
 ---------------------------------------------------------------
 Warning -- This program may not be used in any manner that
 competes with the business of Gaussian, Inc. or will provide
 assistance to any competitor of Gaussian, Inc.  The licensee
 of this program is prohibited from giving any competitor of
 Gaussian, Inc. access to this program.  By using this program,
 the user acknowledges that Gaussian, Inc. is engaged in the
 business of creating and licensing software in the field of
 computational chemistry and represents and warrants to the
 licensee that it is not a competitor of Gaussian, Inc. and that
 it will not use this program in any manner prohibited above.
 ---------------------------------------------------------------
  

 Cite this work as:
 Gaussian 16, Revision A.03,
 M. J. Frisch, G. W. Trucks, H. B. Schlegel, G. E. Scuseria, 
 M. A. Robb, J. R. Cheeseman, G. Scalmani, V. Barone, 
 G. A. Petersson, H. Nakatsuji, X. Li, M. Caricato, A. V. Marenich, 
 J. Bloino, B. G. Janesko, R. Gomperts, B. Mennucci, H. P. Hratchian, 
 J. V. Ortiz, A. F. Izmaylov, J. L. Sonnenberg, D. Williams-Young, 
 F. Ding, F. Lipparini, F. Egidi, J. Goings, B. Peng, A. Petrone, 
 T. Henderson, D. Ranasinghe, V. G. Zakrzewski, J. Gao, N. Rega, 
 G. Zheng, W. Liang, M. Hada, M. Ehara, K. Toyota, R. Fukuda, 
 J. Hasegawa, M. Ishida, T. Nakajima, Y. Honda, O. Kitao, H. Nakai, 
 T. Vreven, K. Throssell, J. A. Montgomery, Jr., J. E. Peralta, 
 F. Ogliaro, M. J. Bearpark, J. J. Heyd, E. N. Brothers, K. N. Kudin, 
 V. N. Staroverov, T. A. Keith, R. Kobayashi, J. Normand, 
 K. Raghavachari, A. P. Rendell, J. C. Burant, S. S. Iyengar, 
 J. Tomasi, M. Cossi, J. M. Millam, M. Klene, C. Adamo, R. Cammi, 
 J. W. Ochterski, R. L. Martin, K. Morokuma, O. Farkas, 
 J. B. Foresman, and D. J. Fox, Gaussian, Inc., Wallingford CT, 2016.
 
 ******************************************
 Gaussian 16:  EM64L-G16RevA.03 25-Dec-2016
                 8-Feb-2021 
 ******************************************
 %nproc=8
 Will use up to    8 processors via shared memory.
 %Mem=4GB
 ----------------------------------------------------------------------
 #t B3LYP/6-31G(d,p) scrf=(solvent=water) # Gfinput IOP(6/7=3) Pop=hirs
 hfeld Density Test # Units(Ang,Deg)
 ----------------------------------------------------------------------
 ---------------------
 ris-1-3dp-opt-g09.log
 ---------------------
 Symbolic Z-matrix:
 Charge = -3 Multiplicity = 1
 C                     0.34401  -0.81685  -0.79732 
 H                     0.18502  -0.4238   -1.80609 
 H                     0.10652  -1.88524  -0.83502 
 C                    -0.72798  -0.18407   0.12339 
 O                    -0.45089  -0.54928   1.50739 
 H                    -1.3804   -0.80428   1.79039 
 C                     1.79732  -0.64509  -0.42568 
 C                     2.36088  -1.28439   0.68795 
 C                     2.67521   0.11002  -1.21688 
 C                     3.71914  -1.13039   0.95998 
 H                     1.72703  -1.882     1.33407 
 N                     3.98634   0.26637  -0.9801 
 H                     2.28209   0.62611  -2.09148 
 C                     4.49071  -0.34905   0.10016 
 H                     4.17713  -1.61272   1.81851 
 H                     5.55605  -0.21532   0.28196 
 P                    -0.67888   1.68546   0.08109 
 P                    -2.43929  -0.99552  -0.23769 
 O                    -1.84705   2.32882   0.81227 
 O                     0.67663   1.88771   1.06107 
 O                    -0.3209    2.20643  -1.30282 
 O                    -2.93123  -1.14432   1.24251 
 O                    -2.13975  -2.35232  -0.90779 
 O                    -3.28137  -0.04581  -1.10617 
 H                     0.61546   1.13242   1.67605 
 
                    Distance matrix (angstroms):
                    1          2          3          4          5
     1  C    0.000000
     2  H    1.094250   0.000000
     3  H    1.095116   1.756401   0.000000
     4  C    1.548315   2.148007   2.123422   0.000000
     5  O    2.452580   3.376281   2.753612   1.457948   0.000000
     6  H    3.109661   3.940809   3.205025   1.894519   1.004541
     7  C    1.509877   2.134013   2.136431   2.625101   2.966545
     8  C    2.548016   3.419827   2.786144   3.327234   3.019589
     9  C    2.543543   2.614035   3.274912   3.669403   4.198669
    10  C    3.818103   4.543173   4.104004   4.623016   4.245762
    11  H    2.755016   3.790085   2.707585   3.221147   2.559203
    12  N    3.804385   3.950776   4.438860   4.862654   5.151883
    13  H    2.741010   2.362512   3.552277   3.823946   4.669324
    14  C    4.268422   4.709389   4.738730   5.221349   5.141964
    15  H    4.708374   5.521612   4.866760   5.382804   4.758810
    16  H    5.356496   5.766401   5.808068   6.286108   6.139750
    17  P    2.842440   2.959181   3.769086   1.870653   2.660897
    18  P    2.844621   3.110265   2.762165   1.928059   2.682940
    19  O    4.157735   4.308368   4.928316   2.835752   3.273517
    20  O    3.298317   3.715557   4.260908   2.672910   2.722026
    21  O    3.136536   2.725316   4.140445   2.813233   3.938034
    22  O    3.872382   4.418611   3.754067   2.651192   2.564434
    23  O    2.922146   3.151299   2.295471   2.785271   3.454894
    24  O    3.719311   3.556490   3.864560   2.837382   3.885331
    25  H    3.160838   3.838281   3.958632   2.439002   1.998415
                    6          7          8          9         10
     6  H    0.000000
     7  C    3.877398   0.000000
     8  C    3.929765   1.402311   0.000000
     9  C    5.131042   1.402455   2.381504   0.000000
    10  C    5.176991   2.418463   1.393767   2.714245   0.000000
    11  H    3.320516   2.152117   1.084608   3.372615   2.161796
    12  N    6.133825   2.435149   2.798101   1.341481   2.405461
    13  H    5.525284   2.150777   3.373640   1.088952   3.802869
    14  C    6.126503   2.760163   2.399278   2.289406   1.394669
    15  H    5.616093   3.411186   2.164424   3.799630   1.086034
    16  H    7.122961   3.848832   3.393648   3.263680   2.161320
    17  P    3.100426   3.438000   4.292835   3.926405   5.295662
    18  P    2.295850   4.255233   4.897131   5.323452   6.275258
    19  O    3.315237   4.863959   5.547740   5.430595   6.555183
    20  O    3.465558   3.143477   3.610836   3.513340   4.286725
    21  O    4.444644   3.658879   4.831246   3.657731   5.707587
    22  O    1.679546   5.038975   5.322930   6.249331   6.656383
    23  O    3.202064   4.318285   4.893111   5.416871   6.269631
    24  O    3.546692   5.159001   6.048796   5.959646   7.379189
    25  H    2.783404   2.995597   3.140669   3.695526   3.907159
                   11         12         13         14         15
    11  H    0.000000
    12  N    3.882700   0.000000
    13  H    4.281717   2.066167   0.000000
    14  C    3.392698   1.341675   3.260709   0.000000
    15  H    2.512008   3.376329   4.887899   2.155904   0.000000
    16  H    4.306524   2.070944   4.130380   1.088983   2.493017
    17  P    4.481644   4.990413   3.822254   5.555561   6.121883
    18  P    4.540319   6.590316   5.325190   6.968283   6.955998
    19  O    5.547732   6.441640   5.327362   6.917029   7.269044
    20  O    3.922828   4.212992   3.756023   4.524782   5.008016
    21  O    5.278491   4.735008   3.145624   5.625871   6.675394
    22  O    4.717196   7.401541   6.436507   7.551332   7.147024
    23  O    4.494344   6.662713   5.461212   6.999432   6.919732
    24  O    5.866041   7.275504   5.689851   7.870986   8.163221
    25  H    3.230985   4.378128   4.150697   4.437989   4.499065
                   16         17         18         19         20
    16  H    0.000000
    17  P    6.521324   0.000000
    18  P    8.050106   3.223091   0.000000
    19  O    7.846003   1.520907   3.536156   0.000000
    20  O    5.370148   1.684836   4.439454   2.573993   0.000000
    21  O    6.550950   1.521436   3.984289   2.611076   2.585464
    22  O    8.591834   3.798636   1.566888   3.663776   4.716225
    23  O    8.075123   4.406324   1.542616   4.995733   5.457679
    24  O    8.947381   3.343626   1.537955   3.372915   4.909297
    25  H    5.307478   2.127220   4.185932   2.870792   0.975912
                   21         22         23         24         25
    21  O    0.000000
    22  O    4.951773   0.000000
    23  O    4.924070   2.590269   0.000000
    24  O    3.725002   2.616414   2.581209   0.000000
    25  H    3.302111   4.236804   5.139146   4.930949   0.000000
 Framework group  C1[X(C7H8NO7P2)]
 Deg. of freedom    69
                         Standard orientation:                         
 ---------------------------------------------------------------------
 Center     Atomic      Atomic             Coordinates (Angstroms)
 Number     Number       Type             X           Y           Z
 ---------------------------------------------------------------------
      1          6           0        0.344010   -0.816849   -0.797320
      2          1           0        0.185020   -0.423799   -1.806090
      3          1           0        0.106520   -1.885238   -0.835020
      4          6           0       -0.727980   -0.184068    0.123390
      5          8           0       -0.450890   -0.549278    1.507390
      6          1           0       -1.380400   -0.804278    1.790390
      7          6           0        1.797320   -0.645089   -0.425680
      8          6           0        2.360880   -1.284389    0.687950
      9          6           0        2.675210    0.110021   -1.216880
     10          6           0        3.719140   -1.130390    0.959980
     11          1           0        1.727030   -1.881999    1.334070
     12          7           0        3.986340    0.266370   -0.980100
     13          1           0        2.282090    0.626111   -2.091480
     14          6           0        4.490710   -0.349050    0.100160
     15          1           0        4.177130   -1.612720    1.818510
     16          1           0        5.556050   -0.215320    0.281960
     17         15           0       -0.678879    1.685462    0.081090
     18         15           0       -2.439290   -0.995518   -0.237690
     19          8           0       -1.847049    2.328822    0.812270
     20          8           0        0.676631    1.887711    1.061070
     21          8           0       -0.320899    2.206432   -1.302820
     22          8           0       -2.931230   -1.144318    1.242510
     23          8           0       -2.139751   -2.352318   -0.907790
     24          8           0       -3.281370   -0.045807   -1.106170
     25          1           0        0.615460    1.132421    1.676050
 ---------------------------------------------------------------------
 Rotational constants (GHZ):           0.6765170           0.2862326           0.2459880
 AO basis set in the form of general basis input (Overlap normalization):
      1 0
 S   6 1.00       0.000000000000
      0.3047524880D+04  0.1834737132D-02
      0.4573695180D+03  0.1403732281D-01
      0.1039486850D+03  0.6884262226D-01
      0.2921015530D+02  0.2321844432D+00
      0.9286662960D+01  0.4679413484D+00
      0.3163926960D+01  0.3623119853D+00
 SP   3 1.00       0.000000000000
      0.7868272350D+01 -0.1193324198D+00  0.6899906659D-01
      0.1881288540D+01 -0.1608541517D+00  0.3164239610D+00
      0.5442492580D+00  0.1143456438D+01  0.7443082909D+00
 SP   1 1.00       0.000000000000
      0.1687144782D+00  0.1000000000D+01  0.1000000000D+01
 D   1 1.00       0.000000000000
      0.8000000000D+00  0.1000000000D+01
 ****
      2 0
 S   3 1.00       0.000000000000
      0.1873113696D+02  0.3349460434D-01
      0.2825394365D+01  0.2347269535D+00
      0.6401216923D+00  0.8137573261D+00
 S   1 1.00       0.000000000000
      0.1612777588D+00  0.1000000000D+01
 P   1 1.00       0.000000000000
      0.1100000000D+01  0.1000000000D+01
 ****
      3 0
 S   3 1.00       0.000000000000
      0.1873113696D+02  0.3349460434D-01
      0.2825394365D+01  0.2347269535D+00
      0.6401216923D+00  0.8137573261D+00
 S   1 1.00       0.000000000000
      0.1612777588D+00  0.1000000000D+01
 P   1 1.00       0.000000000000
      0.1100000000D+01  0.1000000000D+01
 ****
      4 0
 S   6 1.00       0.000000000000
      0.3047524880D+04  0.1834737132D-02
      0.4573695180D+03  0.1403732281D-01
      0.1039486850D+03  0.6884262226D-01
      0.2921015530D+02  0.2321844432D+00
      0.9286662960D+01  0.4679413484D+00
      0.3163926960D+01  0.3623119853D+00
 SP   3 1.00       0.000000000000
      0.7868272350D+01 -0.1193324198D+00  0.6899906659D-01
      0.1881288540D+01 -0.1608541517D+00  0.3164239610D+00
      0.5442492580D+00  0.1143456438D+01  0.7443082909D+00
 SP   1 1.00       0.000000000000
      0.1687144782D+00  0.1000000000D+01  0.1000000000D+01
 D   1 1.00       0.000000000000
      0.8000000000D+00  0.1000000000D+01
 ****
      5 0
 S   6 1.00       0.000000000000
      0.5484671660D+04  0.1831074430D-02
      0.8252349460D+03  0.1395017220D-01
      0.1880469580D+03  0.6844507810D-01
      0.5296450000D+02  0.2327143360D+00
      0.1689757040D+02  0.4701928980D+00
      0.5799635340D+01  0.3585208530D+00
 SP   3 1.00       0.000000000000
      0.1553961625D+02 -0.1107775495D+00  0.7087426823D-01
      0.3599933586D+01 -0.1480262627D+00  0.3397528391D+00
      0.1013761750D+01  0.1130767015D+01  0.7271585773D+00
 SP   1 1.00       0.000000000000
      0.2700058226D+00  0.1000000000D+01  0.1000000000D+01
 D   1 1.00       0.000000000000
      0.8000000000D+00  0.1000000000D+01
 ****
      6 0
 S   3 1.00       0.000000000000
      0.1873113696D+02  0.3349460434D-01
      0.2825394365D+01  0.2347269535D+00
      0.6401216923D+00  0.8137573261D+00
 S   1 1.00       0.000000000000
      0.1612777588D+00  0.1000000000D+01
 P   1 1.00       0.000000000000
      0.1100000000D+01  0.1000000000D+01
 ****
      7 0
 S   6 1.00       0.000000000000
      0.3047524880D+04  0.1834737132D-02
      0.4573695180D+03  0.1403732281D-01
      0.1039486850D+03  0.6884262226D-01
      0.2921015530D+02  0.2321844432D+00
      0.9286662960D+01  0.4679413484D+00
      0.3163926960D+01  0.3623119853D+00
 SP   3 1.00       0.000000000000
      0.7868272350D+01 -0.1193324198D+00  0.6899906659D-01
      0.1881288540D+01 -0.1608541517D+00  0.3164239610D+00
      0.5442492580D+00  0.1143456438D+01  0.7443082909D+00
 SP   1 1.00       0.000000000000
      0.1687144782D+00  0.1000000000D+01  0.1000000000D+01
 D   1 1.00       0.000000000000
      0.8000000000D+00  0.1000000000D+01
 ****
      8 0
 S   6 1.00       0.000000000000
      0.3047524880D+04  0.1834737132D-02
      0.4573695180D+03  0.1403732281D-01
      0.1039486850D+03  0.6884262226D-01
      0.2921015530D+02  0.2321844432D+00
      0.9286662960D+01  0.4679413484D+00
      0.3163926960D+01  0.3623119853D+00
 SP   3 1.00       0.000000000000
      0.7868272350D+01 -0.1193324198D+00  0.6899906659D-01
      0.1881288540D+01 -0.1608541517D+00  0.3164239610D+00
      0.5442492580D+00  0.1143456438D+01  0.7443082909D+00
 SP   1 1.00       0.000000000000
      0.1687144782D+00  0.1000000000D+01  0.1000000000D+01
 D   1 1.00       0.000000000000
      0.8000000000D+00  0.1000000000D+01
 ****
      9 0
 S   6 1.00       0.000000000000
      0.3047524880D+04  0.1834737132D-02
      0.4573695180D+03  0.1403732281D-01
      0.1039486850D+03  0.6884262226D-01
      0.2921015530D+02  0.2321844432D+00
      0.9286662960D+01  0.4679413484D+00
      0.3163926960D+01  0.3623119853D+00
 SP   3 1.00       0.000000000000
      0.7868272350D+01 -0.1193324198D+00  0.6899906659D-01
      0.1881288540D+01 -0.1608541517D+00  0.3164239610D+00
      0.5442492580D+00  0.1143456438D+01  0.7443082909D+00
 SP   1 1.00       0.000000000000
      0.1687144782D+00  0.1000000000D+01  0.1000000000D+01
 D   1 1.00       0.000000000000
      0.8000000000D+00  0.1000000000D+01
 ****
     10 0
 S   6 1.00       0.000000000000
      0.3047524880D+04  0.1834737132D-02
      0.4573695180D+03  0.1403732281D-01
      0.1039486850D+03  0.6884262226D-01
      0.2921015530D+02  0.2321844432D+00
      0.9286662960D+01  0.4679413484D+00
      0.3163926960D+01  0.3623119853D+00
 SP   3 1.00       0.000000000000
      0.7868272350D+01 -0.1193324198D+00  0.6899906659D-01
      0.1881288540D+01 -0.1608541517D+00  0.3164239610D+00
      0.5442492580D+00  0.1143456438D+01  0.7443082909D+00
 SP   1 1.00       0.000000000000
      0.1687144782D+00  0.1000000000D+01  0.1000000000D+01
 D   1 1.00       0.000000000000
      0.8000000000D+00  0.1000000000D+01
 ****
     11 0
 S   3 1.00       0.000000000000
      0.1873113696D+02  0.3349460434D-01
      0.2825394365D+01  0.2347269535D+00
      0.6401216923D+00  0.8137573261D+00
 S   1 1.00       0.000000000000
      0.1612777588D+00  0.1000000000D+01
 P   1 1.00       0.000000000000
      0.1100000000D+01  0.1000000000D+01
 ****
     12 0
 S   6 1.00       0.000000000000
      0.4173511460D+04  0.1834772160D-02
      0.6274579110D+03  0.1399462700D-01
      0.1429020930D+03  0.6858655181D-01
      0.4023432930D+02  0.2322408730D+00
      0.1282021290D+02  0.4690699481D+00
      0.4390437010D+01  0.3604551991D+00
 SP   3 1.00       0.000000000000
      0.1162636186D+02 -0.1149611817D+00  0.6757974388D-01
      0.2716279807D+01 -0.1691174786D+00  0.3239072959D+00
      0.7722183966D+00  0.1145851947D+01  0.7408951398D+00
 SP   1 1.00       0.000000000000
      0.2120314975D+00  0.1000000000D+01  0.1000000000D+01
 D   1 1.00       0.000000000000
      0.8000000000D+00  0.1000000000D+01
 ****
     13 0
 S   3 1.00       0.000000000000
      0.1873113696D+02  0.3349460434D-01
      0.2825394365D+01  0.2347269535D+00
      0.6401216923D+00  0.8137573261D+00
 S   1 1.00       0.000000000000
      0.1612777588D+00  0.1000000000D+01
 P   1 1.00       0.000000000000
      0.1100000000D+01  0.1000000000D+01
 ****
     14 0
 S   6 1.00       0.000000000000
      0.3047524880D+04  0.1834737132D-02
      0.4573695180D+03  0.1403732281D-01
      0.1039486850D+03  0.6884262226D-01
      0.2921015530D+02  0.2321844432D+00
      0.9286662960D+01  0.4679413484D+00
      0.3163926960D+01  0.3623119853D+00
 SP   3 1.00       0.000000000000
      0.7868272350D+01 -0.1193324198D+00  0.6899906659D-01
      0.1881288540D+01 -0.1608541517D+00  0.3164239610D+00
      0.5442492580D+00  0.1143456438D+01  0.7443082909D+00
 SP   1 1.00       0.000000000000
      0.1687144782D+00  0.1000000000D+01  0.1000000000D+01
 D   1 1.00       0.000000000000
      0.8000000000D+00  0.1000000000D+01
 ****
     15 0
 S   3 1.00       0.000000000000
      0.1873113696D+02  0.3349460434D-01
      0.2825394365D+01  0.2347269535D+00
      0.6401216923D+00  0.8137573261D+00
 S   1 1.00       0.000000000000
      0.1612777588D+00  0.1000000000D+01
 P   1 1.00       0.000000000000
      0.1100000000D+01  0.1000000000D+01
 ****
     16 0
 S   3 1.00       0.000000000000
      0.1873113696D+02  0.3349460434D-01
      0.2825394365D+01  0.2347269535D+00
      0.6401216923D+00  0.8137573261D+00
 S   1 1.00       0.000000000000
      0.1612777588D+00  0.1000000000D+01
 P   1 1.00       0.000000000000
      0.1100000000D+01  0.1000000000D+01
 ****
     17 0
 S   6 1.00       0.000000000000
      0.1941330000D+05  0.1851598923D-02
      0.2909420000D+04  0.1420619174D-01
      0.6613640000D+03  0.6999945928D-01
      0.1857590000D+03  0.2400788603D+00
      0.5919430000D+02  0.4847617180D+00
      0.2003100000D+02  0.3351998050D+00
 SP   6 1.00       0.000000000000
      0.3394780000D+03 -0.2782170105D-02  0.4564616191D-02
      0.8101010000D+02 -0.3604990135D-01  0.3369357188D-01
      0.2587800000D+02 -0.1166310044D+00  0.1397548834D+00
      0.9452210000D+01  0.9683280364D-01  0.3393617168D+00
      0.3665660000D+01  0.6144180231D+00  0.4509206237D+00
      0.1467460000D+01  0.4037980152D+00  0.2385858009D+00
 SP   3 1.00       0.000000000000
      0.2156230000D+01 -0.2529241139D+00 -0.1776531273D-01
      0.7489970000D+00  0.3285184468D-01  0.2740581964D+00
      0.2831450000D+00  0.1081254762D+01  0.7854215630D+00
 SP   1 1.00       0.000000000000
      0.9983170000D-01  0.1000000000D+01  0.1000000000D+01
 D   1 1.00       0.000000000000
      0.5500000000D+00  0.1000000000D+01
 ****
     18 0
 S   6 1.00       0.000000000000
      0.1941330000D+05  0.1851598923D-02
      0.2909420000D+04  0.1420619174D-01
      0.6613640000D+03  0.6999945928D-01
      0.1857590000D+03  0.2400788603D+00
      0.5919430000D+02  0.4847617180D+00
      0.2003100000D+02  0.3351998050D+00
 SP   6 1.00       0.000000000000
      0.3394780000D+03 -0.2782170105D-02  0.4564616191D-02
      0.8101010000D+02 -0.3604990135D-01  0.3369357188D-01
      0.2587800000D+02 -0.1166310044D+00  0.1397548834D+00
      0.9452210000D+01  0.9683280364D-01  0.3393617168D+00
      0.3665660000D+01  0.6144180231D+00  0.4509206237D+00
      0.1467460000D+01  0.4037980152D+00  0.2385858009D+00
 SP   3 1.00       0.000000000000
      0.2156230000D+01 -0.2529241139D+00 -0.1776531273D-01
      0.7489970000D+00  0.3285184468D-01  0.2740581964D+00
      0.2831450000D+00  0.1081254762D+01  0.7854215630D+00
 SP   1 1.00       0.000000000000
      0.9983170000D-01  0.1000000000D+01  0.1000000000D+01
 D   1 1.00       0.000000000000
      0.5500000000D+00  0.1000000000D+01
 ****
     19 0
 S   6 1.00       0.000000000000
      0.5484671660D+04  0.1831074430D-02
      0.8252349460D+03  0.1395017220D-01
      0.1880469580D+03  0.6844507810D-01
      0.5296450000D+02  0.2327143360D+00
      0.1689757040D+02  0.4701928980D+00
      0.5799635340D+01  0.3585208530D+00
 SP   3 1.00       0.000000000000
      0.1553961625D+02 -0.1107775495D+00  0.7087426823D-01
      0.3599933586D+01 -0.1480262627D+00  0.3397528391D+00
      0.1013761750D+01  0.1130767015D+01  0.7271585773D+00
 SP   1 1.00       0.000000000000
      0.2700058226D+00  0.1000000000D+01  0.1000000000D+01
 D   1 1.00       0.000000000000
      0.8000000000D+00  0.1000000000D+01
 ****
     20 0
 S   6 1.00       0.000000000000
      0.5484671660D+04  0.1831074430D-02
      0.8252349460D+03  0.1395017220D-01
      0.1880469580D+03  0.6844507810D-01
      0.5296450000D+02  0.2327143360D+00
      0.1689757040D+02  0.4701928980D+00
      0.5799635340D+01  0.3585208530D+00
 SP   3 1.00       0.000000000000
      0.1553961625D+02 -0.1107775495D+00  0.7087426823D-01
      0.3599933586D+01 -0.1480262627D+00  0.3397528391D+00
      0.1013761750D+01  0.1130767015D+01  0.7271585773D+00
 SP   1 1.00       0.000000000000
      0.2700058226D+00  0.1000000000D+01  0.1000000000D+01
 D   1 1.00       0.000000000000
      0.8000000000D+00  0.1000000000D+01
 ****
     21 0
 S   6 1.00       0.000000000000
      0.5484671660D+04  0.1831074430D-02
      0.8252349460D+03  0.1395017220D-01
      0.1880469580D+03  0.6844507810D-01
      0.5296450000D+02  0.2327143360D+00
      0.1689757040D+02  0.4701928980D+00
      0.5799635340D+01  0.3585208530D+00
 SP   3 1.00       0.000000000000
      0.1553961625D+02 -0.1107775495D+00  0.7087426823D-01
      0.3599933586D+01 -0.1480262627D+00  0.3397528391D+00
      0.1013761750D+01  0.1130767015D+01  0.7271585773D+00
 SP   1 1.00       0.000000000000
      0.2700058226D+00  0.1000000000D+01  0.1000000000D+01
 D   1 1.00       0.000000000000
      0.8000000000D+00  0.1000000000D+01
 ****
     22 0
 S   6 1.00       0.000000000000
      0.5484671660D+04  0.1831074430D-02
      0.8252349460D+03  0.1395017220D-01
      0.1880469580D+03  0.6844507810D-01
      0.5296450000D+02  0.2327143360D+00
      0.1689757040D+02  0.4701928980D+00
      0.5799635340D+01  0.3585208530D+00
 SP   3 1.00       0.000000000000
      0.1553961625D+02 -0.1107775495D+00  0.7087426823D-01
      0.3599933586D+01 -0.1480262627D+00  0.3397528391D+00
      0.1013761750D+01  0.1130767015D+01  0.7271585773D+00
 SP   1 1.00       0.000000000000
      0.2700058226D+00  0.1000000000D+01  0.1000000000D+01
 D   1 1.00       0.000000000000
      0.8000000000D+00  0.1000000000D+01
 ****
     23 0
 S   6 1.00       0.000000000000
      0.5484671660D+04  0.1831074430D-02
      0.8252349460D+03  0.1395017220D-01
      0.1880469580D+03  0.6844507810D-01
      0.5296450000D+02  0.2327143360D+00
      0.1689757040D+02  0.4701928980D+00
      0.5799635340D+01  0.3585208530D+00
 SP   3 1.00       0.000000000000
      0.1553961625D+02 -0.1107775495D+00  0.7087426823D-01
      0.3599933586D+01 -0.1480262627D+00  0.3397528391D+00
      0.1013761750D+01  0.1130767015D+01  0.7271585773D+00
 SP   1 1.00       0.000000000000
      0.2700058226D+00  0.1000000000D+01  0.1000000000D+01
 D   1 1.00       0.000000000000
      0.8000000000D+00  0.1000000000D+01
 ****
     24 0
 S   6 1.00       0.000000000000
      0.5484671660D+04  0.1831074430D-02
      0.8252349460D+03  0.1395017220D-01
      0.1880469580D+03  0.6844507810D-01
      0.5296450000D+02  0.2327143360D+00
      0.1689757040D+02  0.4701928980D+00
      0.5799635340D+01  0.3585208530D+00
 SP   3 1.00       0.000000000000
      0.1553961625D+02 -0.1107775495D+00  0.7087426823D-01
      0.3599933586D+01 -0.1480262627D+00  0.3397528391D+00
      0.1013761750D+01  0.1130767015D+01  0.7271585773D+00
 SP   1 1.00       0.000000000000
      0.2700058226D+00  0.1000000000D+01  0.1000000000D+01
 D   1 1.00       0.000000000000
      0.8000000000D+00  0.1000000000D+01
 ****
     25 0
 S   3 1.00       0.000000000000
      0.1873113696D+02  0.3349460434D-01
      0.2825394365D+01  0.2347269535D+00
      0.6401216923D+00  0.8137573261D+00
 S   1 1.00       0.000000000000
      0.1612777588D+00  0.1000000000D+01
 P   1 1.00       0.000000000000
      0.1100000000D+01  0.1000000000D+01
 ****

   303 basis functions,   580 primitive gaussians,   303 cartesian basis functions
    73 alpha electrons       73 beta electrons
       nuclear repulsion energy      1608.7956696645 Hartrees.
 NAtoms=   25 NActive=   25 NUniq=   25 SFac= 1.00D+00 NAtFMM=   60 NAOKFM=F Big=F
 ------------------------------------------------------------------------------
 Polarizable Continuum Model (PCM)
 =================================
 Model                : PCM.
 Atomic radii         : UFF (Universal Force Field).
 Polarization charges : Total charges.
 Charge compensation  : None.
 Solution method      : On-the-fly selection.
 Cavity type          : Scaled VdW (van der Waals Surface) (Alpha=1.100).
 Cavity algorithm     : GePol (No added spheres)
                        Default sphere list used, NSphG=   25.
                        Lebedev-Laikov grids with approx.  5.0 points / Ang**2.
                        Smoothing algorithm: York/Karplus (Gamma=1.0000).
                        Polarization charges: spherical gaussians, with
                                              point-specific exponents (IZeta= 3).
                        Self-potential: point-specific (ISelfS= 7).
                        Self-field    : sphere-specific E.n sum rule (ISelfD= 2).
 Solvent              : Water, Eps=  78.355300 Eps(inf)=   1.777849
 ------------------------------------------------------------------------------
 ExpMin= 9.98D-02 ExpMax= 1.94D+04 ExpMxC= 2.91D+03 IAcc=3 IRadAn=         5 AccDes= 0.00D+00
 Harris functional with IExCor=  402 and IRadAn=       5 diagonalized for initial guess.
 HarFok:  IExCor=  402 AccDes= 0.00D+00 IRadAn=         5 IDoV= 1 UseB2=F ITyADJ=14
 ICtDFT=  3500011 ScaDFX=  1.000000  1.000000  1.000000  1.000000
 FoFCou: FMM=F IPFlag=           0 FMFlag=      100000 FMFlg1=           0
         NFxFlg=           0 DoJE=T BraDBF=F KetDBF=T FulRan=T
         wScrn=  0.000000 ICntrl=       500 IOpCl=  0 I1Cent=   200000004 NGrid=           0
         NMat0=    1 NMatS0=      1 NMatT0=    0 NMatD0=    1 NMtDS0=    0 NMtDT0=    0
 Petite list used in FoFCou.
 Inv3:  Mode=1 IEnd=    14335788.
 Iteration    1 A*A^-1 deviation from unit magnitude is 9.33D-15 for     92.
 Iteration    1 A*A^-1 deviation from orthogonality  is 6.02D-15 for   2052    532.
 Iteration    1 A^-1*A deviation from unit magnitude is 8.66D-15 for    917.
 Iteration    1 A^-1*A deviation from orthogonality  is 5.70D-15 for   2067   1388.
 Error on total polarization charges =  0.00919
 SCF Done:  E(RB3LYP) =  -1536.12933089     A.U. after   13 cycles
            NFock= 13  Conv=0.69D-08     -V/T= 2.0067

 **********************************************************************

            Population analysis using the SCF density.

 **********************************************************************

 Orbital symmetries:
       Occupied  (A) (A) (A) (A) (A) (A) (A) (A) (A) (A) (A) (A)
                 (A) (A) (A) (A) (A) (A) (A) (A) (A) (A) (A) (A)
                 (A) (A) (A) (A) (A) (A) (A) (A) (A) (A) (A) (A)
                 (A) (A) (A) (A) (A) (A) (A) (A) (A) (A) (A) (A)
                 (A) (A) (A) (A) (A) (A) (A) (A) (A) (A) (A) (A)
                 (A) (A) (A) (A) (A) (A) (A) (A) (A) (A) (A) (A)
                 (A)
       Virtual   (A) (A) (A) (A) (A) (A) (A) (A) (A) (A) (A) (A)
                 (A) (A) (A) (A) (A) (A) (A) (A) (A) (A) (A) (A)
                 (A) (A) (A) (A) (A) (A) (A) (A) (A) (A) (A) (A)
                 (A) (A) (A) (A) (A) (A) (A) (A) (A) (A) (A) (A)
                 (A) (A) (A) (A) (A) (A) (A) (A) (A) (A) (A) (A)
                 (A) (A) (A) (A) (A) (A) (A) (A) (A) (A) (A) (A)
                 (A) (A) (A) (A) (A) (A) (A) (A) (A) (A) (A) (A)
                 (A) (A) (A) (A) (A) (A) (A) (A) (A) (A) (A) (A)
                 (A) (A) (A) (A) (A) (A) (A) (A) (A) (A) (A) (A)
                 (A) (A) (A) (A) (A) (A) (A) (A) (A) (A) (A) (A)
                 (A) (A) (A) (A) (A) (A) (A) (A) (A) (A) (A) (A)
                 (A) (A) (A) (A) (A) (A) (A) (A) (A) (A) (A) (A)
                 (A) (A) (A) (A) (A) (A) (A) (A) (A) (A) (A) (A)
                 (A) (A) (A) (A) (A) (A) (A) (A) (A) (A) (A) (A)
                 (A) (A) (A) (A) (A) (A) (A) (A) (A) (A) (A) (A)
                 (A) (A) (A) (A) (A) (A) (A) (A) (A) (A) (A) (A)
                 (A) (A) (A) (A) (A) (A) (A) (A) (A) (A) (A) (A)
                 (A) (A) (A) (A) (A) (A) (A) (A) (A) (A) (A) (A)
                 (A) (A) (A) (A) (A) (A) (A) (A) (A) (A) (A) (A)
                 (A) (A)
 The electronic state is 1-A.
 Alpha  occ. eigenvalues --  -77.12120 -77.09209 -19.10079 -19.09975 -19.03689
 Alpha  occ. eigenvalues --  -19.03310 -19.02045 -19.01113 -19.01059 -14.32018
 Alpha  occ. eigenvalues --  -10.20845 -10.20365 -10.18575 -10.18464 -10.18438
 Alpha  occ. eigenvalues --  -10.17817 -10.15539  -6.56958  -6.53922  -4.73468
 Alpha  occ. eigenvalues --   -4.73178  -4.73121  -4.70309  -4.70221  -4.70184
 Alpha  occ. eigenvalues --   -0.98138  -0.95765  -0.92511  -0.90301  -0.89672
 Alpha  occ. eigenvalues --   -0.85584  -0.83203  -0.82614  -0.79375  -0.75727
 Alpha  occ. eigenvalues --   -0.69448  -0.61215  -0.60929  -0.56026  -0.50324
 Alpha  occ. eigenvalues --   -0.49272  -0.47480  -0.46885  -0.43782  -0.43599
 Alpha  occ. eigenvalues --   -0.40262  -0.39674  -0.38947  -0.38190  -0.37204
 Alpha  occ. eigenvalues --   -0.36205  -0.34812  -0.33823  -0.33029  -0.31689
 Alpha  occ. eigenvalues --   -0.30926  -0.30031  -0.29374  -0.28007  -0.26847
 Alpha  occ. eigenvalues --   -0.26364  -0.24998  -0.24616  -0.23775  -0.22800
 Alpha  occ. eigenvalues --   -0.22594  -0.21369  -0.20774  -0.19823  -0.19653
 Alpha  occ. eigenvalues --   -0.18812  -0.17944  -0.16033
 Alpha virt. eigenvalues --   -0.01017   0.00613   0.11362   0.12902   0.14058
 Alpha virt. eigenvalues --    0.14572   0.15884   0.16542   0.17143   0.17515
 Alpha virt. eigenvalues --    0.19475   0.19870   0.21266   0.21436   0.22766
 Alpha virt. eigenvalues --    0.24495   0.25543   0.25848   0.26472   0.29041
 Alpha virt. eigenvalues --    0.29690   0.30474   0.31797   0.33711   0.36317
 Alpha virt. eigenvalues --    0.37087   0.38738   0.39764   0.43017   0.44155
 Alpha virt. eigenvalues --    0.45495   0.46302   0.47505   0.48265   0.48834
 Alpha virt. eigenvalues --    0.50987   0.53773   0.57447   0.58468   0.59854
 Alpha virt. eigenvalues --    0.59934   0.61256   0.61476   0.62874   0.64522
 Alpha virt. eigenvalues --    0.65495   0.66620   0.67318   0.68876   0.69721
 Alpha virt. eigenvalues --    0.71030   0.74288   0.75610   0.77306   0.77951
 Alpha virt. eigenvalues --    0.80829   0.81909   0.82759   0.83863   0.84423
 Alpha virt. eigenvalues --    0.85664   0.86747   0.87162   0.88223   0.89510
 Alpha virt. eigenvalues --    0.90869   0.91318   0.91926   0.93007   0.94159
 Alpha virt. eigenvalues --    0.95005   0.97555   0.99313   1.00113   1.01980
 Alpha virt. eigenvalues --    1.02676   1.04069   1.05513   1.06444   1.06927
 Alpha virt. eigenvalues --    1.08048   1.10122   1.10562   1.12171   1.12507
 Alpha virt. eigenvalues --    1.12920   1.14028   1.14772   1.15822   1.17366
 Alpha virt. eigenvalues --    1.18505   1.19414   1.20677   1.22057   1.24205
 Alpha virt. eigenvalues --    1.25463   1.26000   1.27017   1.28884   1.29477
 Alpha virt. eigenvalues --    1.30397   1.32914   1.35103   1.35870   1.37580
 Alpha virt. eigenvalues --    1.40432   1.41659   1.43316   1.45469   1.46478
 Alpha virt. eigenvalues --    1.48349   1.48814   1.51649   1.56798   1.57378
 Alpha virt. eigenvalues --    1.59093   1.60494   1.64025   1.66408   1.69152
 Alpha virt. eigenvalues --    1.71081   1.73428   1.75928   1.77705   1.78954
 Alpha virt. eigenvalues --    1.81318   1.82182   1.84348   1.84733   1.85841
 Alpha virt. eigenvalues --    1.86938   1.88343   1.89044   1.89480   1.89870
 Alpha virt. eigenvalues --    1.90746   1.91738   1.91897   1.93297   1.93762
 Alpha virt. eigenvalues --    1.94246   1.94618   1.95923   1.98111   1.99011
 Alpha virt. eigenvalues --    1.99531   2.01049   2.03171   2.04037   2.06815
 Alpha virt. eigenvalues --    2.07952   2.10152   2.10505   2.12268   2.13248
 Alpha virt. eigenvalues --    2.14802   2.17695   2.19677   2.22966   2.24162
 Alpha virt. eigenvalues --    2.25734   2.29735   2.30381   2.32182   2.33643
 Alpha virt. eigenvalues --    2.35195   2.35809   2.36615   2.37921   2.39605
 Alpha virt. eigenvalues --    2.40029   2.42361   2.44190   2.44953   2.46338
 Alpha virt. eigenvalues --    2.50423   2.52768   2.54423   2.55009   2.55129
 Alpha virt. eigenvalues --    2.56659   2.61995   2.63024   2.68256   2.68823
 Alpha virt. eigenvalues --    2.69758   2.69841   2.71837   2.73744   2.74295
 Alpha virt. eigenvalues --    2.78266   2.80263   2.80850   2.84707   2.87710
 Alpha virt. eigenvalues --    2.88263   2.89816   2.90502   2.90532   3.01055
 Alpha virt. eigenvalues --    3.03937   3.04524   3.09573   3.19575   3.24812
 Alpha virt. eigenvalues --    3.28888   3.35147   3.40999   3.46930   3.48674
 Alpha virt. eigenvalues --    3.52311   3.54425   3.59730   3.66642   3.80974
 Alpha virt. eigenvalues --    3.86898   3.88734   3.91166   3.96858   4.10147
 Alpha virt. eigenvalues --    4.11777   4.13602   4.20274   4.24828   4.27614
 Alpha virt. eigenvalues --    4.36592   4.40973   4.50131   4.71356   4.79153
     Molecular Orbital Coefficients:
                           1         2         3         4         5
                           O         O         O         O         O
     Eigenvalues --   -77.12120 -77.09209 -19.10079 -19.09975 -19.03689
   1 1   C  1S         -0.00002  -0.00000  -0.00004   0.00000  -0.00000
   2        2S         -0.00006   0.00003  -0.00016   0.00004  -0.00000
   3        2PX         0.00002   0.00004   0.00002  -0.00005  -0.00001
   4        2PY        -0.00003  -0.00001  -0.00008   0.00001  -0.00002
   5        2PZ        -0.00002  -0.00001  -0.00001   0.00005  -0.00004
   6        3S          0.00058  -0.00040   0.00078   0.00048  -0.00050
   7        3PX         0.00029   0.00002  -0.00006   0.00014   0.00014
   8        3PY        -0.00010   0.00001   0.00068   0.00014  -0.00008
   9        3PZ         0.00009  -0.00030   0.00020   0.00004   0.00003
  10        4XX        -0.00003  -0.00006  -0.00005   0.00002  -0.00002
  11        4YY        -0.00006  -0.00001  -0.00006   0.00002   0.00002
  12        4ZZ        -0.00004  -0.00003  -0.00005  -0.00006  -0.00001
  13        4XY         0.00001   0.00001  -0.00001   0.00001  -0.00000
  14        4XZ         0.00001   0.00001  -0.00001   0.00000   0.00001
  15        4YZ        -0.00002   0.00001   0.00002   0.00001  -0.00002
  16 2   H  1S         -0.00000   0.00001  -0.00008  -0.00001   0.00009
  17        2S         -0.00015  -0.00021  -0.00003  -0.00009   0.00005
  18        3PX         0.00000   0.00002  -0.00000   0.00001  -0.00002
  19        3PY        -0.00003   0.00001  -0.00003  -0.00002   0.00003
  20        3PZ        -0.00002  -0.00001  -0.00000  -0.00000  -0.00001
  21 3   H  1S         -0.00002   0.00002   0.00003  -0.00001   0.00001
  22        2S         -0.00005  -0.00012   0.00027   0.00015   0.00007
  23        3PX        -0.00001   0.00003   0.00001  -0.00002  -0.00001
  24        3PY         0.00001  -0.00001   0.00002   0.00001   0.00000
  25        3PZ        -0.00000  -0.00000  -0.00001   0.00004  -0.00000
  26 4   C  1S         -0.00003  -0.00005  -0.00001   0.00001  -0.00003
  27        2S         -0.00002  -0.00014  -0.00007   0.00015  -0.00020
  28        2PX         0.00001  -0.00003  -0.00000   0.00009  -0.00003
  29        2PY         0.00005  -0.00002   0.00001  -0.00009  -0.00001
  30        2PZ        -0.00000   0.00001   0.00002   0.00024   0.00005
  31        3S          0.00076   0.00140   0.00046  -0.00185   0.00118
  32        3PX        -0.00005  -0.00036  -0.00013  -0.00052   0.00045
  33        3PY         0.00042  -0.00034   0.00040   0.00043   0.00059
  34        3PZ         0.00006  -0.00004   0.00020  -0.00089  -0.00052
  35        4XX        -0.00008  -0.00010  -0.00004   0.00005  -0.00003
  36        4YY        -0.00015  -0.00009   0.00002   0.00009   0.00002
  37        4ZZ        -0.00007  -0.00008  -0.00002   0.00033  -0.00004
  38        4XY         0.00000  -0.00001   0.00001  -0.00000   0.00001
  39        4XZ        -0.00000  -0.00001   0.00001   0.00006  -0.00002
  40        4YZ         0.00001  -0.00000  -0.00003  -0.00009  -0.00001
  41 5   O  1S         -0.00000   0.00001  -0.00004   0.99270   0.00000
  42        2S         -0.00001   0.00002  -0.00006   0.02568   0.00000
  43        2PX         0.00001   0.00002  -0.00000  -0.00073  -0.00000
  44        2PY        -0.00002   0.00000  -0.00002  -0.00001   0.00003
  45        2PZ         0.00002   0.00001  -0.00003  -0.00036  -0.00000
  46        3S         -0.00011  -0.00028   0.00027   0.01287   0.00006
  47        3PX        -0.00002   0.00003   0.00010   0.00002  -0.00006
  48        3PY        -0.00007  -0.00000   0.00016   0.00025  -0.00014
  49        3PZ         0.00006   0.00019   0.00012  -0.00045   0.00001
  50        4XX        -0.00005   0.00003  -0.00003  -0.00828   0.00003
  51        4YY         0.00001  -0.00001  -0.00002  -0.00823   0.00000
  52        4ZZ        -0.00002   0.00000  -0.00006  -0.00832   0.00001
  53        4XY         0.00000   0.00003   0.00001   0.00001   0.00002
  54        4XZ         0.00001  -0.00001  -0.00000  -0.00002   0.00002
  55        4YZ        -0.00001  -0.00001   0.00003   0.00003   0.00001
  56 6   H  1S          0.00003  -0.00001  -0.00004   0.00045   0.00003
  57        2S         -0.00012  -0.00021   0.00009  -0.00167  -0.00014
  58        3PX         0.00000  -0.00001  -0.00000   0.00003  -0.00002
  59        3PY        -0.00002  -0.00001  -0.00002  -0.00001   0.00001
  60        3PZ         0.00002  -0.00003  -0.00001   0.00005  -0.00000
  61 7   C  1S          0.00002  -0.00001   0.00001  -0.00001  -0.00002
  62        2S          0.00009  -0.00002   0.00002  -0.00009  -0.00007
  63        2PX        -0.00002   0.00002   0.00001  -0.00001   0.00003
  64        2PY        -0.00000  -0.00000   0.00004  -0.00002  -0.00006
  65        2PZ         0.00002  -0.00000   0.00003   0.00003   0.00002
  66        3S         -0.00054   0.00001  -0.00060   0.00096   0.00022
  67        3PX         0.00051  -0.00043   0.00000   0.00036  -0.00019
  68        3PY         0.00026  -0.00008  -0.00021  -0.00009   0.00047
  69        3PZ        -0.00031   0.00006  -0.00008   0.00052  -0.00042
  70        4XX         0.00002   0.00001   0.00001  -0.00001  -0.00003
  71        4YY         0.00004  -0.00001   0.00005   0.00000  -0.00004
  72        4ZZ         0.00003  -0.00002   0.00001   0.00003  -0.00007
  73        4XY         0.00002   0.00000  -0.00000   0.00002   0.00001
  74        4XZ        -0.00001   0.00000  -0.00001  -0.00003  -0.00002
  75        4YZ        -0.00000   0.00000   0.00004  -0.00002  -0.00000
  76 8   C  1S         -0.00000  -0.00000  -0.00002   0.00001  -0.00000
  77        2S         -0.00002  -0.00001  -0.00006  -0.00003  -0.00003
  78        2PX        -0.00001   0.00000   0.00000  -0.00011  -0.00001
  79        2PY         0.00000   0.00000  -0.00001   0.00005   0.00001
  80        2PZ        -0.00000  -0.00000  -0.00002   0.00002  -0.00001
  81        3S          0.00027   0.00009   0.00047   0.00024   0.00048
  82        3PX        -0.00024   0.00008   0.00000   0.00095  -0.00006
  83        3PY         0.00005   0.00003   0.00020  -0.00054   0.00007
  84        3PZ        -0.00013  -0.00006  -0.00001   0.00066  -0.00024
  85        4XX         0.00002  -0.00001  -0.00002   0.00010   0.00000
  86        4YY        -0.00000  -0.00000  -0.00001   0.00001  -0.00001
  87        4ZZ        -0.00000   0.00000  -0.00003   0.00001   0.00002
  88        4XY        -0.00000   0.00000  -0.00001   0.00003  -0.00000
  89        4XZ         0.00001  -0.00000   0.00000  -0.00001   0.00001
  90        4YZ        -0.00000  -0.00001  -0.00002   0.00003  -0.00001
  91 9   C  1S          0.00001  -0.00000  -0.00000   0.00000  -0.00002
  92        2S          0.00004  -0.00001  -0.00003   0.00003  -0.00004
  93        2PX        -0.00001  -0.00000   0.00000   0.00001   0.00005
  94        2PY         0.00002  -0.00000  -0.00002   0.00000  -0.00003
  95        2PZ         0.00001   0.00000   0.00001  -0.00001  -0.00001
  96        3S         -0.00043   0.00020   0.00019  -0.00029   0.00018
  97        3PX         0.00016   0.00002  -0.00019  -0.00015   0.00023
  98        3PY         0.00009  -0.00013   0.00006   0.00007   0.00025
  99        3PZ        -0.00019   0.00017   0.00011  -0.00021  -0.00010
 100        4XX         0.00002  -0.00000  -0.00001  -0.00001  -0.00005
 101        4YY         0.00002   0.00001  -0.00001   0.00000  -0.00003
 102        4ZZ         0.00002   0.00000   0.00000  -0.00001  -0.00004
 103        4XY        -0.00001   0.00000  -0.00001  -0.00001  -0.00001
 104        4XZ         0.00001  -0.00000  -0.00002   0.00001   0.00001
 105        4YZ         0.00002  -0.00001   0.00001   0.00001  -0.00002
 106 10  C  1S          0.00000  -0.00000   0.00000   0.00001   0.00000
 107        2S          0.00001  -0.00000   0.00001   0.00007   0.00001
 108        2PX         0.00000   0.00000   0.00000   0.00003   0.00000
 109        2PY         0.00000  -0.00000   0.00000  -0.00002   0.00000
 110        2PZ        -0.00000   0.00000  -0.00000  -0.00001  -0.00000
 111        3S          0.00004  -0.00006  -0.00017  -0.00082  -0.00019
 112        3PX        -0.00007   0.00002   0.00011   0.00060  -0.00002
 113        3PY        -0.00006   0.00001  -0.00006   0.00031  -0.00008
 114        3PZ         0.00007   0.00001   0.00003   0.00005   0.00013
 115        4XX        -0.00000   0.00000  -0.00000  -0.00004  -0.00000
 116        4YY         0.00000  -0.00000   0.00000   0.00001   0.00000
 117        4ZZ        -0.00000  -0.00000  -0.00000  -0.00000   0.00000
 118        4XY         0.00000  -0.00000   0.00001  -0.00003  -0.00000
 119        4XZ        -0.00000   0.00000   0.00000  -0.00001  -0.00000
 120        4YZ         0.00000  -0.00000   0.00000   0.00001   0.00000
 121 11  H  1S         -0.00001   0.00000  -0.00002   0.00013  -0.00000
 122        2S         -0.00004   0.00003  -0.00001  -0.00058   0.00002
 123        3PX         0.00001  -0.00000   0.00001  -0.00006   0.00000
 124        3PY        -0.00000   0.00000  -0.00001  -0.00004   0.00000
 125        3PZ         0.00000   0.00000  -0.00001   0.00000   0.00001
 126 12  N  1S         -0.00000   0.00000  -0.00000   0.00000   0.00001
 127        2S         -0.00000   0.00000  -0.00001   0.00000   0.00003
 128        2PX         0.00000   0.00000  -0.00000  -0.00000  -0.00002
 129        2PY        -0.00000  -0.00000   0.00001  -0.00000   0.00001
 130        2PZ        -0.00001   0.00000   0.00000  -0.00000  -0.00000
 131        3S          0.00004  -0.00008   0.00006  -0.00003  -0.00029
 132        3PX         0.00000   0.00001  -0.00002  -0.00013   0.00020
 133        3PY         0.00000   0.00003  -0.00004   0.00004  -0.00006
 134        3PZ         0.00006  -0.00003  -0.00004  -0.00006   0.00006
 135        4XX        -0.00001   0.00000  -0.00000   0.00001   0.00002
 136        4YY        -0.00001   0.00000  -0.00000   0.00000   0.00003
 137        4ZZ        -0.00000   0.00000  -0.00001  -0.00000   0.00002
 138        4XY        -0.00000  -0.00000   0.00001   0.00001   0.00001
 139        4XZ        -0.00000   0.00000   0.00000  -0.00000   0.00000
 140        4YZ        -0.00000  -0.00000  -0.00000   0.00001  -0.00000
 141 13  H  1S          0.00003   0.00000  -0.00004  -0.00001  -0.00000
 142        2S         -0.00007   0.00011   0.00006  -0.00007  -0.00017
 143        3PX        -0.00001   0.00000   0.00001  -0.00000  -0.00002
 144        3PY         0.00000  -0.00000  -0.00000  -0.00000   0.00001
 145        3PZ        -0.00000   0.00000   0.00000   0.00000  -0.00001
 146 14  C  1S         -0.00000   0.00000  -0.00000  -0.00000  -0.00000
 147        2S         -0.00000   0.00000   0.00000  -0.00001  -0.00001
 148        2PX         0.00000   0.00000   0.00000   0.00000   0.00000
 149        2PY        -0.00000   0.00000  -0.00000  -0.00000  -0.00000
 150        2PZ         0.00000  -0.00000   0.00000   0.00001   0.00001
 151        3S          0.00005   0.00003   0.00004  -0.00003   0.00011
 152        3PX        -0.00001  -0.00001  -0.00004  -0.00012  -0.00012
 153        3PY        -0.00004   0.00000   0.00003   0.00007  -0.00008
 154        3PZ         0.00004  -0.00002  -0.00000  -0.00026   0.00007
 155        4XX        -0.00000   0.00000  -0.00000   0.00000  -0.00000
 156        4YY        -0.00000   0.00000   0.00000   0.00001  -0.00000
 157        4ZZ        -0.00000   0.00000  -0.00000  -0.00000  -0.00001
 158        4XY         0.00000   0.00000  -0.00000   0.00001   0.00000
 159        4XZ        -0.00000   0.00000  -0.00000   0.00000   0.00000
 160        4YZ         0.00000  -0.00000  -0.00000  -0.00001   0.00000
 161 15  H  1S         -0.00001   0.00000   0.00000   0.00002  -0.00000
 162        2S         -0.00002   0.00001  -0.00002   0.00000  -0.00003
 163        3PX         0.00000  -0.00000  -0.00001  -0.00002   0.00000
 164        3PY         0.00000  -0.00000   0.00000  -0.00002   0.00000
 165        3PZ        -0.00000  -0.00000   0.00000  -0.00001  -0.00000
 166 16  H  1S         -0.00000  -0.00000   0.00000   0.00002   0.00001
 167        2S          0.00000   0.00000   0.00001   0.00005   0.00004
 168        3PX        -0.00000   0.00000  -0.00000   0.00000   0.00000
 169        3PY         0.00000   0.00000  -0.00000   0.00000   0.00000
 170        3PZ        -0.00000   0.00000  -0.00000   0.00001  -0.00000
 171 17  P  1S          0.99625   0.00004   0.00001   0.00000   0.00002
 172        2S          0.01417   0.00001   0.00002   0.00003  -0.00005
 173        2PX         0.00002  -0.00000  -0.00006  -0.00001  -0.00000
 174        2PY        -0.00002  -0.00001   0.00000   0.00000   0.00000
 175        2PZ         0.00002   0.00000  -0.00004   0.00001   0.00002
 176        3S         -0.02719   0.00016   0.00009   0.00019   0.00082
 177        3PX        -0.00003   0.00002   0.00010   0.00008   0.00003
 178        3PY         0.00015   0.00006  -0.00012  -0.00013  -0.00003
 179        3PZ        -0.00004  -0.00000   0.00008  -0.00002  -0.00018
 180        4S          0.00285  -0.00039  -0.00295  -0.00049  -0.00359
 181        4PX        -0.00001   0.00015  -0.00166   0.00016  -0.00100
 182        4PY        -0.00029   0.00012   0.00019   0.00028   0.00012
 183        4PZ        -0.00014   0.00006  -0.00033  -0.00015   0.00198
 184        5XX         0.00945  -0.00003   0.00021   0.00004  -0.00025
 185        5YY         0.00941  -0.00008   0.00008   0.00003  -0.00024
 186        5ZZ         0.00946  -0.00004   0.00008  -0.00003  -0.00006
 187        5XY         0.00001  -0.00005   0.00000  -0.00000   0.00005
 188        5XZ        -0.00001  -0.00000   0.00020   0.00000  -0.00005
 189        5YZ         0.00000  -0.00001   0.00005   0.00002  -0.00007
 190 18  P  1S         -0.00004   0.99625   0.00000   0.00000  -0.00000
 191        2S          0.00000   0.01417   0.00001  -0.00001  -0.00002
 192        2PX         0.00001   0.00003  -0.00000  -0.00000   0.00000
 193        2PY         0.00001   0.00001   0.00000   0.00000   0.00001
 194        2PZ        -0.00000   0.00001   0.00000  -0.00001  -0.00001
 195        3S          0.00012  -0.02713   0.00005   0.00001  -0.00007
 196        3PX        -0.00006  -0.00017   0.00003   0.00002  -0.00002
 197        3PY        -0.00006  -0.00006  -0.00001   0.00002  -0.00008
 198        3PZ         0.00004  -0.00003   0.00000   0.00011   0.00007
 199        4S         -0.00023   0.00250  -0.00025   0.00035   0.00046
 200        4PX         0.00003   0.00003   0.00004  -0.00003   0.00018
 201        4PY        -0.00022   0.00014  -0.00025   0.00014   0.00009
 202        4PZ        -0.00000   0.00002   0.00000   0.00031  -0.00010
 203        5XX        -0.00005   0.00940   0.00001   0.00002  -0.00001
 204        5YY        -0.00008   0.00944  -0.00000  -0.00003  -0.00004
 205        5ZZ        -0.00003   0.00944  -0.00000   0.00001  -0.00001
 206        5XY        -0.00004  -0.00002  -0.00001  -0.00001  -0.00002
 207        5XZ        -0.00002  -0.00003  -0.00001  -0.00002   0.00004
 208        5YZ        -0.00001  -0.00001  -0.00001  -0.00001   0.00002
 209 19  O  1S          0.00000   0.00000  -0.00002  -0.00002  -0.00071
 210        2S         -0.00006  -0.00000  -0.00000  -0.00010   0.00000
 211        2PX        -0.00014  -0.00001  -0.00000  -0.00001   0.00002
 212        2PY         0.00006  -0.00001  -0.00001   0.00003  -0.00003
 213        2PZ         0.00009   0.00001  -0.00003  -0.00000   0.00005
 214        3S          0.00064   0.00005   0.00014   0.00048  -0.00010
 215        3PX         0.00035   0.00002   0.00022   0.00008   0.00008
 216        3PY        -0.00012   0.00003  -0.00001  -0.00014   0.00006
 217        3PZ        -0.00021  -0.00002   0.00008   0.00000  -0.00035
 218        4XX        -0.00011   0.00000  -0.00001  -0.00007   0.00007
 219        4YY        -0.00002  -0.00001   0.00004  -0.00006   0.00004
 220        4ZZ        -0.00003   0.00001   0.00000  -0.00008   0.00005
 221        4XY         0.00010  -0.00001  -0.00001  -0.00002   0.00001
 222        4XZ         0.00011   0.00001  -0.00004   0.00001  -0.00002
 223        4YZ        -0.00006  -0.00001  -0.00002  -0.00001   0.00004
 224 20  O  1S         -0.00002  -0.00000   0.99272  -0.00001  -0.00007
 225        2S         -0.00004  -0.00002   0.02576  -0.00016  -0.00020
 226        2PX         0.00004   0.00001  -0.00045  -0.00002  -0.00003
 227        2PY         0.00001   0.00001  -0.00067   0.00002   0.00000
 228        2PZ         0.00001   0.00000   0.00029  -0.00005   0.00004
 229        3S          0.00075   0.00006   0.01256   0.00086   0.00109
 230        3PX        -0.00032  -0.00003  -0.00033  -0.00001  -0.00003
 231        3PY        -0.00008  -0.00005  -0.00016  -0.00024  -0.00000
 232        3PZ        -0.00013  -0.00000  -0.00041   0.00022  -0.00044
 233        4XX        -0.00018  -0.00001  -0.00820  -0.00011  -0.00013
 234        4YY        -0.00003  -0.00001  -0.00810  -0.00007  -0.00014
 235        4ZZ        -0.00009  -0.00001  -0.00812  -0.00012  -0.00015
 236        4XY        -0.00004   0.00000   0.00000   0.00001  -0.00000
 237        4XZ        -0.00010   0.00000  -0.00002  -0.00003   0.00003
 238        4YZ        -0.00005  -0.00000  -0.00005  -0.00001   0.00005
 239 21  O  1S          0.00002  -0.00001  -0.00004   0.00001   0.99274
 240        2S         -0.00001  -0.00003  -0.00025   0.00002   0.02560
 241        2PX         0.00004   0.00000  -0.00004   0.00000  -0.00018
 242        2PY         0.00004  -0.00000  -0.00000   0.00000  -0.00020
 243        2PZ        -0.00016   0.00000   0.00000   0.00001   0.00065
 244        3S          0.00039   0.00013   0.00141  -0.00010   0.01263
 245        3PX        -0.00008  -0.00003   0.00021  -0.00003  -0.00001
 246        3PY        -0.00005  -0.00002  -0.00012  -0.00001  -0.00036
 247        3PZ         0.00038   0.00001   0.00033  -0.00001   0.00049
 248        4XX         0.00005  -0.00001  -0.00020   0.00003  -0.00814
 249        4YY         0.00003  -0.00001  -0.00013   0.00001  -0.00814
 250        4ZZ        -0.00014  -0.00001  -0.00015   0.00002  -0.00814
 251        4XY        -0.00003  -0.00000  -0.00002   0.00000  -0.00001
 252        4XZ         0.00006  -0.00000  -0.00002  -0.00001   0.00002
 253        4YZ         0.00011  -0.00000  -0.00001   0.00000  -0.00001
 254 22  O  1S          0.00001  -0.00000  -0.00000  -0.00000  -0.00000
 255        2S          0.00002  -0.00005  -0.00000   0.00002  -0.00000
 256        2PX         0.00001  -0.00004   0.00001  -0.00000  -0.00000
 257        2PY         0.00001  -0.00000  -0.00001   0.00000   0.00001
 258        2PZ        -0.00001   0.00012   0.00001  -0.00005  -0.00001
 259        3S         -0.00004   0.00066   0.00002  -0.00001  -0.00001
 260        3PX        -0.00003   0.00015  -0.00004   0.00013   0.00002
 261        3PY        -0.00000   0.00000   0.00004   0.00000  -0.00003
 262        3PZ         0.00004  -0.00038  -0.00003   0.00028   0.00004
 263        4XX         0.00003  -0.00001  -0.00000  -0.00002   0.00002
 264        4YY         0.00002   0.00001   0.00000   0.00002  -0.00000
 265        4ZZ         0.00001  -0.00021   0.00000  -0.00000   0.00000
 266        4XY        -0.00001  -0.00001  -0.00000  -0.00001   0.00000
 267        4XZ         0.00001   0.00010   0.00000   0.00003   0.00001
 268        4YZ        -0.00000   0.00003  -0.00001   0.00001   0.00000
 269 23  O  1S         -0.00000  -0.00000   0.00000  -0.00001  -0.00001
 270        2S         -0.00000  -0.00008   0.00002  -0.00006   0.00005
 271        2PX        -0.00001   0.00003   0.00000  -0.00001   0.00000
 272        2PY        -0.00001  -0.00014  -0.00001  -0.00002   0.00001
 273        2PZ         0.00000  -0.00007   0.00000  -0.00000  -0.00001
 274        3S         -0.00002   0.00077  -0.00013   0.00026  -0.00026
 275        3PX         0.00003  -0.00010  -0.00000   0.00001  -0.00001
 276        3PY         0.00004   0.00039   0.00002   0.00008  -0.00007
 277        3PZ        -0.00002   0.00020  -0.00003  -0.00001   0.00001
 278        4XX        -0.00000  -0.00000   0.00002  -0.00005   0.00004
 279        4YY         0.00001  -0.00019   0.00002  -0.00004   0.00004
 280        4ZZ        -0.00001  -0.00004   0.00002  -0.00005   0.00004
 281        4XY        -0.00000   0.00005   0.00000  -0.00000   0.00000
 282        4XZ        -0.00000   0.00002   0.00000   0.00001   0.00000
 283        4YZ         0.00000  -0.00011  -0.00000   0.00001   0.00000
 284 24  O  1S         -0.00000   0.00000  -0.00001   0.00001   0.00003
 285        2S         -0.00000  -0.00005  -0.00003   0.00003  -0.00003
 286        2PX         0.00001  -0.00009   0.00001   0.00000  -0.00003
 287        2PY         0.00001   0.00010   0.00002   0.00000  -0.00003
 288        2PZ        -0.00001  -0.00009  -0.00000   0.00002  -0.00000
 289        3S          0.00008   0.00061   0.00019  -0.00012   0.00010
 290        3PX        -0.00004   0.00024   0.00000  -0.00001   0.00008
 291        3PY        -0.00006  -0.00028  -0.00007  -0.00001   0.00010
 292        3PZ         0.00003   0.00025   0.00003  -0.00009   0.00001
 293        4XX        -0.00001  -0.00005  -0.00001   0.00001  -0.00003
 294        4YY        -0.00001  -0.00006  -0.00003   0.00003  -0.00005
 295        4ZZ         0.00001  -0.00006  -0.00001   0.00001  -0.00006
 296        4XY        -0.00002   0.00010  -0.00001  -0.00000   0.00002
 297        4XZ        -0.00000  -0.00009  -0.00000  -0.00001   0.00001
 298        4YZ        -0.00001   0.00010  -0.00001   0.00001  -0.00001
 299 25  H  1S         -0.00007  -0.00002   0.00027  -0.00009   0.00007
 300        2S         -0.00018   0.00000  -0.00114  -0.00079  -0.00005
 301        3PX        -0.00003  -0.00000   0.00002   0.00011   0.00001
 302        3PY        -0.00000  -0.00001  -0.00011   0.00013   0.00003
 303        3PZ        -0.00002   0.00000   0.00015   0.00006   0.00000
                           6         7         8         9        10
                           O         O         O         O         O
     Eigenvalues --   -19.03310 -19.02045 -19.01113 -19.01059 -14.32018
   1 1   C  1S          0.00001   0.00000  -0.00001   0.00001   0.00000
   2        2S          0.00002   0.00002  -0.00001  -0.00000  -0.00000
   3        2PX        -0.00001   0.00000   0.00005  -0.00002   0.00001
   4        2PY         0.00007  -0.00000   0.00000   0.00000  -0.00000
   5        2PZ         0.00001  -0.00003   0.00002  -0.00001   0.00000
   6        3S          0.00027  -0.00016  -0.00029  -0.00021  -0.00006
   7        3PX         0.00000   0.00030  -0.00097   0.00023   0.00001
   8        3PY        -0.00054   0.00014  -0.00012  -0.00041   0.00002
   9        3PZ         0.00022  -0.00002   0.00013   0.00002  -0.00006
  10        4XX         0.00003  -0.00001  -0.00006   0.00003   0.00002
  11        4YY         0.00004  -0.00000  -0.00001   0.00003   0.00000
  12        4ZZ         0.00003  -0.00002  -0.00000  -0.00000  -0.00000
  13        4XY         0.00002  -0.00001  -0.00000   0.00004  -0.00000
  14        4XZ        -0.00000   0.00002  -0.00004   0.00002   0.00001
  15        4YZ         0.00000   0.00001   0.00001   0.00001   0.00000
  16 2   H  1S          0.00006   0.00004  -0.00006  -0.00000   0.00000
  17        2S          0.00003  -0.00007   0.00028   0.00030  -0.00005
  18        3PX         0.00001  -0.00001   0.00003  -0.00002  -0.00000
  19        3PY         0.00001  -0.00001   0.00000  -0.00001  -0.00000
  20        3PZ        -0.00000   0.00000   0.00002   0.00003  -0.00000
  21 3   H  1S         -0.00006   0.00000  -0.00002   0.00006   0.00000
  22        2S         -0.00028   0.00019  -0.00017  -0.00040   0.00000
  23        3PX        -0.00002  -0.00001   0.00004   0.00004  -0.00000
  24        3PY        -0.00002   0.00001  -0.00001  -0.00003   0.00000
  25        3PZ        -0.00000  -0.00000  -0.00000   0.00001   0.00000
  26 4   C  1S         -0.00002  -0.00004  -0.00002  -0.00002  -0.00000
  27        2S         -0.00011  -0.00020  -0.00012  -0.00013  -0.00001
  28        2PX         0.00004   0.00002   0.00003  -0.00001  -0.00000
  29        2PY        -0.00001   0.00004  -0.00006   0.00003  -0.00000
  30        2PZ        -0.00005   0.00003   0.00001  -0.00000   0.00000
  31        3S          0.00049   0.00144   0.00051   0.00077   0.00006
  32        3PX        -0.00043  -0.00040  -0.00079  -0.00013   0.00003
  33        3PY         0.00052  -0.00066   0.00053  -0.00042   0.00000
  34        3PZ         0.00009   0.00028  -0.00007  -0.00059  -0.00000
  35        4XX        -0.00001  -0.00003   0.00003   0.00001  -0.00000
  36        4YY         0.00003  -0.00006  -0.00002  -0.00002   0.00000
  37        4ZZ        -0.00004   0.00000  -0.00004  -0.00005  -0.00000
  38        4XY        -0.00001  -0.00000   0.00002   0.00003  -0.00000
  39        4XZ         0.00001   0.00004   0.00002  -0.00001  -0.00000
  40        4YZ         0.00001  -0.00000  -0.00001   0.00004  -0.00000
  41 5   O  1S         -0.00003   0.00000   0.00000  -0.00004   0.00000
  42        2S         -0.00012   0.00001   0.00000  -0.00013   0.00000
  43        2PX         0.00002  -0.00002  -0.00001   0.00002   0.00000
  44        2PY        -0.00004   0.00003  -0.00001   0.00002  -0.00000
  45        2PZ         0.00001  -0.00004  -0.00000   0.00004  -0.00000
  46        3S          0.00043   0.00004   0.00005   0.00052  -0.00002
  47        3PX        -0.00005  -0.00017   0.00012  -0.00009  -0.00001
  48        3PY         0.00016  -0.00022   0.00001   0.00001   0.00000
  49        3PZ        -0.00010   0.00043  -0.00005  -0.00022   0.00001
  50        4XX        -0.00011   0.00004  -0.00001  -0.00010   0.00000
  51        4YY        -0.00006   0.00002  -0.00001  -0.00009   0.00000
  52        4ZZ        -0.00008  -0.00005   0.00003  -0.00008   0.00000
  53        4XY        -0.00003   0.00003   0.00000   0.00001   0.00000
  54        4XZ        -0.00001  -0.00007  -0.00002   0.00002   0.00000
  55        4YZ         0.00000   0.00000   0.00001  -0.00001   0.00000
  56 6   H  1S         -0.00006  -0.00016   0.00003  -0.00007  -0.00000
  57        2S          0.00015  -0.00072  -0.00003   0.00021  -0.00001
  58        3PX         0.00003  -0.00002   0.00001   0.00002  -0.00000
  59        3PY        -0.00000  -0.00001   0.00001  -0.00001  -0.00000
  60        3PZ         0.00000   0.00003   0.00001  -0.00001   0.00000
  61 7   C  1S          0.00001   0.00000  -0.00002   0.00000   0.00001
  62        2S          0.00003   0.00002  -0.00008   0.00001   0.00008
  63        2PX        -0.00002  -0.00000   0.00004   0.00000  -0.00004
  64        2PY         0.00002  -0.00000   0.00000   0.00001  -0.00001
  65        2PZ         0.00001  -0.00000   0.00000  -0.00000   0.00000
  66        3S         -0.00003  -0.00022   0.00067  -0.00006  -0.00088
  67        3PX         0.00025   0.00012  -0.00095   0.00004  -0.00038
  68        3PY         0.00025   0.00003  -0.00012   0.00012  -0.00025
  69        3PZ        -0.00021   0.00003  -0.00022  -0.00002   0.00025
  70        4XX         0.00003  -0.00000   0.00001  -0.00000  -0.00008
  71        4YY         0.00002   0.00001  -0.00004   0.00000  -0.00001
  72        4ZZ         0.00003   0.00000  -0.00003   0.00000   0.00001
  73        4XY        -0.00001   0.00000   0.00000  -0.00001  -0.00004
  74        4XZ        -0.00000  -0.00000   0.00002  -0.00000   0.00002
  75        4YZ        -0.00001   0.00000   0.00000  -0.00000  -0.00001
  76 8   C  1S          0.00000  -0.00000  -0.00000   0.00000  -0.00001
  77        2S          0.00001  -0.00000  -0.00001   0.00001  -0.00001
  78        2PX        -0.00001   0.00000  -0.00000  -0.00000  -0.00001
  79        2PY         0.00000  -0.00001   0.00000   0.00000  -0.00001
  80        2PZ         0.00001   0.00000  -0.00000   0.00001   0.00001
  81        3S          0.00004   0.00002   0.00031  -0.00007   0.00017
  82        3PX        -0.00011  -0.00003   0.00029  -0.00002   0.00021
  83        3PY         0.00001   0.00003   0.00014   0.00002   0.00018
  84        3PZ        -0.00009  -0.00004  -0.00008  -0.00012  -0.00018
  85        4XX         0.00001   0.00000  -0.00001  -0.00000  -0.00003
  86        4YY         0.00001  -0.00000  -0.00000   0.00000  -0.00001
  87        4ZZ         0.00000  -0.00000   0.00000   0.00001  -0.00002
  88        4XY        -0.00000  -0.00000   0.00000  -0.00000   0.00000
  89        4XZ         0.00000   0.00000  -0.00001  -0.00000  -0.00001
  90        4YZ         0.00000   0.00000  -0.00001   0.00000   0.00000
  91 9   C  1S          0.00001   0.00000  -0.00000   0.00000   0.00004
  92        2S          0.00004   0.00001  -0.00001   0.00001   0.00033
  93        2PX        -0.00002  -0.00000  -0.00000  -0.00001   0.00019
  94        2PY         0.00003   0.00000  -0.00000  -0.00000   0.00004
  95        2PZ         0.00001   0.00000   0.00000   0.00000   0.00000
  96        3S         -0.00047  -0.00002   0.00031  -0.00000   0.00032
  97        3PX         0.00010   0.00001   0.00018   0.00012  -0.00061
  98        3PY        -0.00000   0.00000  -0.00009   0.00004  -0.00041
  99        3PZ        -0.00022  -0.00002   0.00020  -0.00006   0.00039
 100        4XX         0.00002   0.00000  -0.00000   0.00002  -0.00025
 101        4YY         0.00002   0.00000   0.00000   0.00001   0.00001
 102        4ZZ         0.00002  -0.00000   0.00001   0.00001   0.00002
 103        4XY        -0.00001  -0.00000   0.00000  -0.00000  -0.00000
 104        4XZ         0.00001  -0.00000   0.00000   0.00001  -0.00008
 105        4YZ         0.00001   0.00000  -0.00001  -0.00000  -0.00006
 106 10  C  1S         -0.00000   0.00000  -0.00000  -0.00000   0.00000
 107        2S         -0.00000   0.00000  -0.00000  -0.00000   0.00006
 108        2PX         0.00000  -0.00000   0.00001   0.00000  -0.00000
 109        2PY         0.00000   0.00000  -0.00000  -0.00000  -0.00003
 110        2PZ        -0.00000  -0.00000   0.00001  -0.00000   0.00004
 111        3S          0.00008  -0.00002  -0.00025   0.00002  -0.00077
 112        3PX        -0.00006  -0.00001   0.00010  -0.00006  -0.00014
 113        3PY        -0.00001  -0.00004   0.00001  -0.00002  -0.00022
 114        3PZ         0.00002   0.00004   0.00002   0.00004   0.00027
 115        4XX        -0.00000   0.00000  -0.00000   0.00000   0.00002
 116        4YY        -0.00000   0.00000  -0.00000  -0.00000  -0.00004
 117        4ZZ        -0.00000   0.00000  -0.00000  -0.00000  -0.00007
 118        4XY        -0.00000   0.00000   0.00000  -0.00000   0.00000
 119        4XZ        -0.00000  -0.00000   0.00000  -0.00000   0.00001
 120        4YZ        -0.00000   0.00000  -0.00000  -0.00000   0.00005
 121 11  H  1S         -0.00000  -0.00000   0.00002  -0.00001   0.00002
 122        2S          0.00001   0.00002   0.00008   0.00010   0.00012
 123        3PX         0.00000   0.00000  -0.00001   0.00001   0.00000
 124        3PY         0.00000   0.00000  -0.00000   0.00001   0.00000
 125        3PZ         0.00000  -0.00000  -0.00000  -0.00000  -0.00000
 126 12  N  1S         -0.00001   0.00000   0.00000   0.00000   0.99275
 127        2S         -0.00002   0.00000   0.00002   0.00001   0.03464
 128        2PX         0.00001  -0.00000   0.00000  -0.00000  -0.00082
 129        2PY        -0.00001  -0.00000   0.00000   0.00000  -0.00080
 130        2PZ        -0.00001  -0.00000  -0.00000  -0.00000   0.00088
 131        3S          0.00016  -0.00001  -0.00024  -0.00006   0.00364
 132        3PX        -0.00007   0.00001   0.00008   0.00006   0.00037
 133        3PY         0.00002   0.00000   0.00002  -0.00000   0.00038
 134        3PZ         0.00007   0.00000  -0.00001   0.00004  -0.00043
 135        4XX        -0.00001   0.00000   0.00001  -0.00000  -0.00797
 136        4YY        -0.00002   0.00000   0.00001   0.00000  -0.00813
 137        4ZZ        -0.00001   0.00000   0.00001   0.00000  -0.00805
 138        4XY        -0.00001  -0.00000   0.00000  -0.00000  -0.00002
 139        4XZ        -0.00001  -0.00000  -0.00000  -0.00000   0.00011
 140        4YZ        -0.00000   0.00000  -0.00000  -0.00000  -0.00006
 141 13  H  1S          0.00003  -0.00000   0.00001   0.00001  -0.00001
 142        2S         -0.00008   0.00000   0.00007  -0.00007   0.00001
 143        3PX        -0.00001  -0.00000  -0.00000  -0.00001  -0.00006
 144        3PY         0.00001   0.00000   0.00000   0.00000   0.00001
 145        3PZ        -0.00000   0.00000  -0.00000  -0.00000  -0.00004
 146 14  C  1S         -0.00000  -0.00000  -0.00000  -0.00000   0.00004
 147        2S         -0.00001  -0.00000  -0.00000  -0.00000   0.00034
 148        2PX         0.00000  -0.00000   0.00000  -0.00000  -0.00004
 149        2PY        -0.00000  -0.00000   0.00000   0.00000   0.00010
 150        2PZ         0.00000   0.00000  -0.00000   0.00000  -0.00016
 151        3S         -0.00001   0.00004   0.00004   0.00001   0.00022
 152        3PX         0.00002  -0.00001  -0.00007  -0.00000  -0.00029
 153        3PY        -0.00002  -0.00001  -0.00000  -0.00004  -0.00042
 154        3PZ         0.00001   0.00001  -0.00001   0.00004   0.00050
 155        4XX        -0.00000   0.00000   0.00000  -0.00000   0.00000
 156        4YY        -0.00000  -0.00000  -0.00000   0.00000  -0.00005
 157        4ZZ         0.00000   0.00000   0.00000  -0.00000  -0.00017
 158        4XY         0.00000   0.00000   0.00000   0.00000   0.00010
 159        4XZ        -0.00000  -0.00000  -0.00000  -0.00000  -0.00013
 160        4YZ        -0.00000   0.00000  -0.00000   0.00000   0.00008
 161 15  H  1S         -0.00000  -0.00000   0.00001  -0.00000   0.00003
 162        2S         -0.00000  -0.00002   0.00001  -0.00001  -0.00004
 163        3PX         0.00000   0.00000  -0.00000   0.00000  -0.00001
 164        3PY         0.00000   0.00000  -0.00000  -0.00000   0.00001
 165        3PZ        -0.00000   0.00000  -0.00000  -0.00000  -0.00001
 166 16  H  1S         -0.00000  -0.00000   0.00000  -0.00000  -0.00001
 167        2S         -0.00000  -0.00000   0.00002  -0.00000  -0.00001
 168        3PX        -0.00000   0.00000   0.00000   0.00000   0.00006
 169        3PY         0.00000   0.00000  -0.00000   0.00000  -0.00002
 170        3PZ        -0.00000  -0.00000  -0.00000  -0.00000   0.00005
 171 17  P  1S          0.00001  -0.00000  -0.00000   0.00000   0.00000
 172        2S         -0.00007  -0.00004  -0.00001   0.00001   0.00000
 173        2PX         0.00002  -0.00001  -0.00000   0.00000  -0.00000
 174        2PY         0.00000  -0.00000  -0.00000   0.00000   0.00000
 175        2PZ        -0.00001   0.00000   0.00001  -0.00001   0.00000
 176        3S          0.00064  -0.00011  -0.00007   0.00003   0.00001
 177        3PX        -0.00014   0.00006   0.00003  -0.00001  -0.00000
 178        3PY         0.00001   0.00006   0.00003  -0.00004  -0.00000
 179        3PZ         0.00013  -0.00004  -0.00002   0.00004  -0.00000
 180        4S         -0.00280   0.00078  -0.00042  -0.00004  -0.00006
 181        4PX         0.00176  -0.00021   0.00015   0.00034  -0.00004
 182        4PY        -0.00041  -0.00030   0.00011  -0.00003   0.00002
 183        4PZ        -0.00156   0.00018   0.00021  -0.00014   0.00001
 184        5XX        -0.00009  -0.00004   0.00003   0.00001  -0.00000
 185        5YY        -0.00020  -0.00003  -0.00003   0.00001  -0.00000
 186        5ZZ        -0.00019  -0.00004  -0.00003   0.00002  -0.00000
 187        5XY        -0.00006  -0.00001   0.00001   0.00000  -0.00000
 188        5XZ        -0.00009   0.00000   0.00005  -0.00000  -0.00000
 189        5YZ         0.00006   0.00003   0.00004  -0.00005   0.00000
 190 18  P  1S         -0.00000   0.00001   0.00001   0.00001  -0.00000
 191        2S         -0.00001  -0.00004  -0.00005  -0.00006  -0.00000
 192        2PX         0.00000   0.00002   0.00001  -0.00001   0.00000
 193        2PY         0.00000  -0.00000  -0.00002   0.00002   0.00000
 194        2PZ         0.00000  -0.00003   0.00002   0.00001  -0.00000
 195        3S         -0.00004   0.00053   0.00064   0.00056  -0.00000
 196        3PX        -0.00000  -0.00003   0.00000   0.00008  -0.00000
 197        3PY        -0.00004   0.00003   0.00013  -0.00015  -0.00000
 198        3PZ         0.00000   0.00015  -0.00014  -0.00007   0.00000
 199        4S         -0.00011  -0.00333  -0.00307  -0.00278   0.00002
 200        4PX         0.00002   0.00002   0.00050  -0.00084   0.00001
 201        4PY        -0.00008  -0.00032  -0.00151   0.00154  -0.00000
 202        4PZ        -0.00008  -0.00176   0.00101   0.00061  -0.00000
 203        5XX        -0.00002  -0.00017  -0.00011  -0.00017  -0.00000
 204        5YY         0.00000  -0.00021  -0.00011   0.00001  -0.00000
 205        5ZZ        -0.00003   0.00007  -0.00017  -0.00019  -0.00000
 206        5XY        -0.00001   0.00007  -0.00009  -0.00004  -0.00000
 207        5XZ         0.00000  -0.00014   0.00010  -0.00003   0.00000
 208        5YZ         0.00002  -0.00002  -0.00014   0.00015   0.00000
 209 19  O  1S          0.99274  -0.00003  -0.00006  -0.00002   0.00000
 210        2S          0.02562   0.00002  -0.00012  -0.00005   0.00000
 211        2PX         0.00054   0.00002   0.00002  -0.00001  -0.00000
 212        2PY        -0.00026   0.00003   0.00003  -0.00001   0.00000
 213        2PZ        -0.00034   0.00001   0.00002  -0.00000  -0.00000
 214        3S          0.01258  -0.00018   0.00050   0.00028  -0.00001
 215        3PX         0.00041  -0.00009  -0.00003   0.00006   0.00000
 216        3PY        -0.00035  -0.00005  -0.00015   0.00001  -0.00000
 217        3PZ        -0.00015  -0.00001  -0.00012  -0.00001   0.00000
 218        4XX        -0.00813  -0.00001  -0.00009  -0.00003   0.00000
 219        4YY        -0.00813   0.00002  -0.00008  -0.00003   0.00000
 220        4ZZ        -0.00815  -0.00002  -0.00009  -0.00002   0.00000
 221        4XY        -0.00001   0.00001   0.00001  -0.00001  -0.00000
 222        4XZ         0.00001  -0.00001  -0.00000  -0.00000   0.00000
 223        4YZ        -0.00000   0.00001   0.00002  -0.00001  -0.00000
 224 20  O  1S          0.00002   0.00001   0.00000   0.00001  -0.00000
 225        2S         -0.00003   0.00004   0.00000   0.00002  -0.00001
 226        2PX         0.00003  -0.00001  -0.00000   0.00001   0.00000
 227        2PY        -0.00003  -0.00000   0.00001   0.00001   0.00000
 228        2PZ        -0.00004   0.00001   0.00000  -0.00001   0.00000
 229        3S          0.00025  -0.00018  -0.00001  -0.00013   0.00005
 230        3PX        -0.00033   0.00008   0.00002  -0.00004  -0.00001
 231        3PY         0.00015   0.00003  -0.00004  -0.00003  -0.00000
 232        3PZ         0.00013  -0.00001   0.00000   0.00005  -0.00001
 233        4XX         0.00000   0.00002  -0.00001   0.00002  -0.00001
 234        4YY         0.00000   0.00002   0.00001   0.00003  -0.00001
 235        4ZZ        -0.00003   0.00003   0.00000   0.00001  -0.00001
 236        4XY         0.00001  -0.00000   0.00000   0.00000  -0.00000
 237        4XZ         0.00002   0.00001  -0.00001  -0.00000   0.00000
 238        4YZ        -0.00001   0.00000  -0.00000  -0.00001   0.00000
 239 21  O  1S          0.00074   0.00001  -0.00007   0.00003  -0.00000
 240        2S          0.00009   0.00002  -0.00011   0.00004  -0.00001
 241        2PX         0.00005  -0.00001   0.00003   0.00001  -0.00000
 242        2PY        -0.00003  -0.00001   0.00001  -0.00001   0.00000
 243        2PZ         0.00001   0.00001  -0.00000   0.00000  -0.00000
 244        3S         -0.00035  -0.00007   0.00050  -0.00021   0.00004
 245        3PX        -0.00033   0.00006  -0.00011  -0.00007   0.00001
 246        3PY         0.00015   0.00005  -0.00008   0.00004  -0.00001
 247        3PZ         0.00011  -0.00002   0.00007  -0.00003   0.00001
 248        4XX         0.00006   0.00001  -0.00008   0.00004  -0.00001
 249        4YY         0.00006   0.00002  -0.00009   0.00003  -0.00000
 250        4ZZ         0.00010   0.00002  -0.00007   0.00003  -0.00000
 251        4XY         0.00003  -0.00000   0.00001   0.00000   0.00000
 252        4XZ        -0.00002   0.00000  -0.00001  -0.00001   0.00000
 253        4YZ         0.00000   0.00000  -0.00001   0.00000  -0.00000
 254 22  O  1S          0.00002   0.99275   0.00007   0.00013  -0.00000
 255        2S         -0.00004   0.02564  -0.00010  -0.00006   0.00000
 256        2PX         0.00000   0.00022   0.00003  -0.00000   0.00000
 257        2PY        -0.00002   0.00005  -0.00006   0.00006  -0.00000
 258        2PZ         0.00000  -0.00055  -0.00000  -0.00001  -0.00000
 259        3S          0.00020   0.01235   0.00056   0.00041  -0.00000
 260        3PX        -0.00002   0.00040  -0.00008   0.00012  -0.00000
 261        3PY         0.00008   0.00016   0.00032  -0.00030   0.00000
 262        3PZ        -0.00005  -0.00038  -0.00023  -0.00019   0.00000
 263        4XX        -0.00005  -0.00808  -0.00008  -0.00000   0.00000
 264        4YY        -0.00002  -0.00812  -0.00006  -0.00006  -0.00000
 265        4ZZ        -0.00003  -0.00814  -0.00003  -0.00001  -0.00000
 266        4XY         0.00000   0.00000   0.00003  -0.00000   0.00000
 267        4XZ        -0.00001   0.00003  -0.00001  -0.00002   0.00000
 268        4YZ        -0.00000  -0.00000  -0.00002   0.00000  -0.00000
 269 23  O  1S          0.00000  -0.00016  -0.00278   0.99277   0.00000
 270        2S         -0.00001  -0.00007  -0.00012   0.02572   0.00000
 271        2PX        -0.00001  -0.00001   0.00001  -0.00015  -0.00000
 272        2PY        -0.00000   0.00003  -0.00001   0.00056   0.00000
 273        2PZ        -0.00001  -0.00004   0.00006   0.00027  -0.00000
 274        3S          0.00001   0.00043   0.00032   0.01196  -0.00001
 275        3PX         0.00003  -0.00001  -0.00012   0.00006   0.00000
 276        3PY         0.00000   0.00007   0.00027   0.00041  -0.00000
 277        3PZ         0.00002   0.00034  -0.00021   0.00024  -0.00000
 278        4XX        -0.00000  -0.00002   0.00000  -0.00804   0.00000
 279        4YY        -0.00001  -0.00001   0.00003  -0.00807   0.00000
 280        4ZZ        -0.00001  -0.00004  -0.00002  -0.00804   0.00000
 281        4XY         0.00000   0.00000   0.00001   0.00001   0.00000
 282        4XZ         0.00000   0.00002  -0.00002   0.00001   0.00000
 283        4YZ         0.00000   0.00004   0.00000  -0.00001   0.00000
 284 24  O  1S          0.00001  -0.00012   0.99276   0.00277   0.00000
 285        2S         -0.00010  -0.00014   0.02568   0.00004   0.00000
 286        2PX        -0.00002   0.00003   0.00032  -0.00001   0.00000
 287        2PY        -0.00003  -0.00002  -0.00043   0.00001  -0.00000
 288        2PZ        -0.00002  -0.00005   0.00036   0.00005  -0.00000
 289        3S          0.00042   0.00076   0.01215   0.00026  -0.00001
[...]
              Q-H       Q-CM5   
     1  C   -0.036245   0.004985
     4  C   -0.022589   0.039901
     5  O   -0.185613  -0.180110
     7  C    0.003875  -0.004374
     8  C    0.009665   0.019172
     9  C    0.030757   0.123258
    10  C   -0.008150  -0.002094
    12  N   -0.206766  -0.396068
    14  C    0.032343   0.120154
    17  P    0.292790   0.264507
    18  P    0.211117   0.192341
    19  O   -0.571025  -0.581508
    20  O   -0.231884  -0.208005
    21  O   -0.556432  -0.568803
    22  O   -0.556490  -0.592932
    23  O   -0.595661  -0.611836
    24  O   -0.609709  -0.618606
 
 EQQ= 0.000000000000E+00 EQD= 0.000000000000E+00 EDD= 0.732493476308E-02
 EQQ+QD+DD= 0.732493476308E-02
 
 Orbital energies and kinetic energies (alpha):
                                 1                 2
   1         O               -77.121196        106.045626
   2         O               -77.092095        106.045900
   3         O               -19.100786         29.026995
   4         O               -19.099746         29.026512
   5         O               -19.036889         29.028647
   6         O               -19.033098         29.028588
   7         O               -19.020449         29.029059
   8         O               -19.011135         29.029458
   9         O               -19.010595         29.029691
  10         O               -14.320176         21.961184
  11         O               -10.208450         15.880855
  12         O               -10.203645         15.880987
  13         O               -10.185747         15.876223
  14         O               -10.184640         15.881811
  15         O               -10.184379         15.885274
  16         O               -10.178170         15.891563
  17         O               -10.155395         15.885685
  18         O                -6.569580         15.695151
  19         O                -6.539223         15.696173
  20         O                -4.734682         14.711284
  21         O                -4.731779         14.706971
  22         O                -4.731205         14.709456
  23         O                -4.703095         14.714774
  24         O                -4.702215         14.707501
  25         O                -4.701838         14.707344
  26         O                -0.981379          2.409379
  27         O                -0.957654          2.571303
  28         O                -0.925112          1.831449
  29         O                -0.903008          2.612481
  30         O                -0.896720          2.756826
  31         O                -0.855842          2.888214
  32         O                -0.832029          2.847326
  33         O                -0.826136          2.872271
  34         O                -0.793746          1.681115
  35         O                -0.757270          1.617553
  36         O                -0.694482          1.624248
  37         O                -0.612153          1.540436
  38         O                -0.609294          1.704450
  39         O                -0.560257          1.684342
  40         O                -0.503236          1.186240
  41         O                -0.492725          2.042248
  42         O                -0.474800          1.658272
  43         O                -0.468846          1.557956
  44         O                -0.437821          1.526446
  45         O                -0.435993          1.642599
  46         O                -0.402615          1.800687
  47         O                -0.396740          1.427561
  48         O                -0.389472          1.756795
  49         O                -0.381901          1.468636
  50         O                -0.372040          1.503337
  51         O                -0.362047          1.730691
  52         O                -0.348124          2.006802
  53         O                -0.338227          1.724496
  54         O                -0.330295          1.954783
  55         O                -0.316894          2.139282
  56         O                -0.309265          2.285390
  57         O                -0.300308          2.244957
  58         O                -0.293735          2.011677
  59         O                -0.280070          2.071825
  60         O                -0.268468          1.533031
  61         O                -0.263639          1.894904
  62         O                -0.249985          1.897876
  63         O                -0.246161          1.855121
  64         O                -0.237748          1.642529
  65         O                -0.228003          2.025514
  66         O                -0.225944          2.052513
  67         O                -0.213687          2.193381
  68         O                -0.207741          2.033421
  69         O                -0.198227          2.342910
  70         O                -0.196527          2.207634
  71         O                -0.188124          2.230508
  72         O                -0.179441          2.139973
  73         O                -0.160333          2.404030
  74         V                -0.010165          1.549513
  75         V                 0.006125          1.428004
  76         V                 0.113624          1.310857
  77         V                 0.129021          1.351121
  78         V                 0.140583          1.739728
  79         V                 0.145719          1.666433
  80         V                 0.158839          1.401504
  81         V                 0.165419          1.853766
  82         V                 0.171430          1.572328
  83         V                 0.175154          1.375460
  84         V                 0.194746          1.491237
  85         V                 0.198696          1.364947
  86         V                 0.212660          2.084671
  87         V                 0.214358          1.795163
  88         V                 0.227661          2.159757
  89         V                 0.244947          2.341270
  90         V                 0.255431          2.108047
  91         V                 0.258480          1.752169
  92         V                 0.264720          1.724842
  93         V                 0.290410          2.220887
  94         V                 0.296900          1.944154
  95         V                 0.304742          1.838667
  96         V                 0.317972          1.827278
  97         V                 0.337113          1.952791
  98         V                 0.363167          1.926503
  99         V                 0.370866          2.348481
 100         V                 0.387382          2.111394
 101         V                 0.397638          3.034123
 102         V                 0.430165          2.612620
 103         V                 0.441555          1.737103
 104         V                 0.454946          2.039598
 105         V                 0.463016          2.396779
 106         V                 0.475046          2.435627
 107         V                 0.482654          2.629281
 108         V                 0.488335          2.372732
 109         V                 0.509867          2.089243
 110         V                 0.537732          2.035411
 111         V                 0.574471          2.278149
 112         V                 0.584676          2.202665
 113         V                 0.598536          2.205526
 114         V                 0.599337          2.194837
 115         V                 0.612556          2.222306
 116         V                 0.614761          1.921002
 117         V                 0.628735          2.394347
 118         V                 0.645219          2.742941
 119         V                 0.654954          2.658395
 120         V                 0.666202          2.517393
 121         V                 0.673176          2.412397
 122         V                 0.688761          2.497294
 123         V                 0.697211          2.361124
 124         V                 0.710304          2.596990
 125         V                 0.742878          2.332785
 126         V                 0.756099          2.311859
 127         V                 0.773063          2.466986
 128         V                 0.779508          2.532733
 129         V                 0.808291          2.557096
 130         V                 0.819089          2.581877
 131         V                 0.827585          2.696972
 132         V                 0.838625          2.523235
 133         V                 0.844231          2.598007
 134         V                 0.856639          2.551632
 135         V                 0.867470          2.217050
 136         V                 0.871625          2.543425
 137         V                 0.882235          2.670123
 138         V                 0.895096          2.529975
 139         V                 0.908689          2.586012
 140         V                 0.913179          2.463936
 141         V                 0.919261          2.699853
 142         V                 0.930073          2.490151
 143         V                 0.941589          2.598639
 144         V                 0.950055          2.675422
 145         V                 0.975549          2.686139
 146         V                 0.993129          2.709266
 147         V                 1.001133          2.883996
 148         V                 1.019796          2.760730
 149         V                 1.026758          2.794980
 150         V                 1.040695          3.114283
 151         V                 1.055130          2.635594
 152         V                 1.064436          3.162404
 153         V                 1.069266          2.867911
 154         V                 1.080476          3.073128
 155         V                 1.101216          3.242816
 156         V                 1.105620          3.274376
 157         V                 1.121707          3.198307
 158         V                 1.125074          2.697702
 159         V                 1.129204          3.096615
 160         V                 1.140281          3.164722
 161         V                 1.147721          3.344895
 162         V                 1.158218          3.202688
 163         V                 1.173663          2.827631
 164         V                 1.185047          3.383158
 165         V                 1.194136          2.811994
 166         V                 1.206769          2.908130
 167         V                 1.220569          3.427979
 168         V                 1.242048          3.434321
 169         V                 1.254627          3.205664
 170         V                 1.260000          2.956113
 171         V                 1.270172          3.676849
 172         V                 1.288839          2.994562
 173         V                 1.294773          3.518269
 174         V                 1.303967          3.561799
 175         V                 1.329145          3.295986
 176         V                 1.351035          2.528202
 177         V                 1.358703          3.345603
 178         V                 1.375802          2.732619
 179         V                 1.404324          2.663505
 180         V                 1.416588          2.707518
 181         V                 1.433161          2.699917
 182         V                 1.454690          2.593394
 183         V                 1.464777          2.782213
 184         V                 1.483495          2.703304
 185         V                 1.488140          2.669758
 186         V                 1.516490          2.748528
 187         V                 1.567984          2.829253
 188         V                 1.573781          2.786358
 189         V                 1.590929          2.775098
 190         V                 1.604944          2.785580
 191         V                 1.640248          2.706020
 192         V                 1.664080          2.849904
 193         V                 1.691520          2.802622
 194         V                 1.710808          2.872078
 195         V                 1.734283          2.837667
 196         V                 1.759277          2.924580
 197         V                 1.777047          2.896352
 198         V                 1.789545          3.082379
 199         V                 1.813182          2.992042
 200         V                 1.821815          3.002159
 201         V                 1.843479          3.167610
 202         V                 1.847329          3.030085
 203         V                 1.858411          3.016719
 204         V                 1.869376          2.976588
 205         V                 1.883425          2.999383
 206         V                 1.890444          3.060289
 207         V                 1.894803          2.891563
 208         V                 1.898698          2.932214
 209         V                 1.907461          2.904839
 210         V                 1.917380          3.231981
 211         V                 1.918971          2.987788
 212         V                 1.932975          2.975698
 213         V                 1.937625          3.013665
 214         V                 1.942462          2.980198
 215         V                 1.946181          3.120989
 216         V                 1.959227          3.048181
 217         V                 1.981113          3.222018
 218         V                 1.990111          3.167108
 219         V                 1.995308          3.093579
 220         V                 2.010495          3.181605
 221         V                 2.031708          3.245768
 222         V                 2.040373          3.307676
 223         V                 2.068149          3.289245
 224         V                 2.079522          3.408098
 225         V                 2.101519          3.446503
 226         V                 2.105046          3.508087
 227         V                 2.122683          3.351586
 228         V                 2.132477          3.315929
 229         V                 2.148018          3.398902
 230         V                 2.176950          3.519339
 231         V                 2.196774          3.439638
 232         V                 2.229660          3.471969
 233         V                 2.241617          3.445585
 234         V                 2.257336          3.496070
 235         V                 2.297350          3.574967
 236         V                 2.303808          3.523443
 237         V                 2.321815          3.443688
 238         V                 2.336430          3.508658
 239         V                 2.351946          3.596357
 240         V                 2.358092          3.519844
 241         V                 2.366152          3.592045
 242         V                 2.379210          3.657891
 243         V                 2.396047          3.741068
 244         V                 2.400289          3.354678
 245         V                 2.423615          3.608386
 246         V                 2.441898          3.738315
 247         V                 2.449527          3.799344
 248         V                 2.463382          3.870025
 249         V                 2.504233          3.921400
 250         V                 2.527675          3.582067
 251         V                 2.544227          3.940593
 252         V                 2.550085          4.043052
 253         V                 2.551287          4.018582
 254         V                 2.566586          3.933869
 255         V                 2.619948          3.886493
 256         V                 2.630239          3.970298
 257         V                 2.682564          3.723491
 258         V                 2.688227          4.073456
 259         V                 2.697579          3.881492
 260         V                 2.698414          3.970090
 261         V                 2.718374          3.999936
 262         V                 2.737435          3.838006
 263         V                 2.742950          4.232009
 264         V                 2.782656          4.230120
 265         V                 2.802625          4.212155
 266         V                 2.808499          4.189241
 267         V                 2.847067          4.543734
 268         V                 2.877099          4.590155
 269         V                 2.882627          4.464109
 270         V                 2.898157          4.366129
 271         V                 2.905023          4.622026
 272         V                 2.905318          4.687986
 273         V                 3.010548          4.509641
 274         V                 3.039371          4.587941
 275         V                 3.045235          4.363226
 276         V                 3.095727          4.629136
 277         V                 3.195745          5.063681
 278         V                 3.248118          4.908261
 279         V                 3.288884          4.968626
 280         V                 3.351471          5.110837
 281         V                 3.409986          5.188434
 282         V                 3.469301          5.316912
 283         V                 3.486738          6.102934
 284         V                 3.523112          6.100957
 285         V                 3.544252          6.814222
 286         V                 3.597303          9.049848
 287         V                 3.666420          9.834453
 288         V                 3.809735          6.192223
 289         V                 3.868976         10.216250
 290         V                 3.887335         10.148258
 291         V                 3.911660         10.006591
 292         V                 3.968584         10.545332
 293         V                 4.101467         10.246664
 294         V                 4.117773         10.781492
 295         V                 4.136016         10.226075
 296         V                 4.202737         10.206373
 297         V                 4.248276         10.445289
 298         V                 4.276143         10.440801
 299         V                 4.365919         10.107857
 300         V                 4.409735         10.357265
 301         V                 4.501311         10.184735
 302         V                 4.713564         10.527592
 303         V                 4.791528         10.282709
 Total kinetic energy from orbitals= 1.525836266297D+03

 Test job not archived.
 1\1\GINC-BATAGIN1\SP\RB3LYP\6-31G(d,p)\C7H8N1O7P2(3-)\ORISON\08-Feb-20
 21\0\\#t B3LYP/6-31G(d,p) scrf=(solvent=water) # Gfinput IOP(6/7=3) Po
 p=hirshfeld Density Test # Units(Ang,Deg)\\ris-1-3dp-opt-g09.log\\-3,1
 \C,0,0.34401,-0.81685,-0.79732\H,0,0.18502,-0.4238,-1.80609\H,0,0.1065
 2,-1.88524,-0.83502\C,0,-0.72798,-0.18407,0.12339\O,0,-0.45089,-0.5492
 8,1.50739\H,0,-1.3804,-0.80428,1.79039\C,0,1.79732,-0.64509,-0.42568\C
 ,0,2.36088,-1.28439,0.68795\C,0,2.67521,0.11002,-1.21688\C,0,3.71914,-
 1.13039,0.95998\H,0,1.72703,-1.882,1.33407\N,0,3.98634,0.26637,-0.9801
 \H,0,2.28209,0.62611,-2.09148\C,0,4.49071,-0.34905,0.10016\H,0,4.17713
 ,-1.61272,1.81851\H,0,5.55605,-0.21532,0.28196\P,0,-0.67888,1.68546,0.
 08109\P,0,-2.43929,-0.99552,-0.23769\O,0,-1.84705,2.32882,0.81227\O,0,
 0.67663,1.88771,1.06107\O,0,-0.3209,2.20643,-1.30282\O,0,-2.93123,-1.1
 4432,1.24251\O,0,-2.13975,-2.35232,-0.90779\O,0,-3.28137,-0.04581,-1.1
 0617\H,0,0.61546,1.13242,1.67605\\Version=EM64L-G16RevA.03\State=1-A\H
 F=-1536.1293309\RMSD=6.859e-09\Dipole=9.3444457,-2.0738334,1.6441192\Q
 uadrupole=-27.0520116,-0.0206445,27.072656,-12.0138953,3.3575971,-2.01
 79422\PG=C01 [X(C7H8N1O7P2)]\\@


 TELEVISION IS CALLED A MEDIUM BECAUSE IT ISN'T
 RARE, AND IT ISN'T WELL DONE.
 Job cpu time:       0 days  0 hours 11 minutes 34.3 seconds.
 Elapsed time:       0 days  0 hours  1 minutes 27.3 seconds.
 File lengths (MBytes):  RWF=    133 Int=      0 D2E=      0 Chk=      7 Scr=      1
 Normal termination of Gaussian 16 at Mon Feb  8 15:03:34 2021.
