 Entering Gaussian System, Link 0=g16
 Input=w-3-tio2_cation_scf_g09.com
 Output=w-3-tio2_cation_scf_g09.log
 Initial command:
 /home/rheinheimer/Apps//g16/l1.exe "/home/rheinheimer/Apps/scrgauss/Gau-317624.inp" -scrdir="/home/rheinheimer/Apps/scrgauss/"
 Entering Link 1 = /home/rheinheimer/Apps//g16/l1.exe PID=    317626.
  
 Copyright (c) 1988,1990,1992,1993,1995,1998,2003,2009,2016,
            Gaussian, Inc.  All Rights Reserved.
  
 This is part of the Gaussian(R) 16 program.  It is based on
 the Gaussian(R) 09 system (copyright 2009, Gaussian, Inc.),
 the Gaussian(R) 03 system (copyright 2003, Gaussian, Inc.),
 the Gaussian(R) 98 system (copyright 1998, Gaussian, Inc.),
 the Gaussian(R) 94 system (copyright 1995, Gaussian, Inc.),
 the Gaussian 92(TM) system (copyright 1992, Gaussian, Inc.),
 the Gaussian 90(TM) system (copyright 1990, Gaussian, Inc.),
 the Gaussian 88(TM) system (copyright 1988, Gaussian, Inc.),
 the Gaussian 86(TM) system (copyright 1986, Carnegie Mellon
 University), and the Gaussian 82(TM) system (copyright 1983,
 Carnegie Mellon University). Gaussian is a federally registered
 trademark of Gaussian, Inc.
  
 This software contains proprietary and confidential information,
 including trade secrets, belonging to Gaussian, Inc.
  
 This software is provided under written license and may be
 used, copied, transmitted, or stored only in accord with that
 written license.
  
 The following legend is applicable only to US Government
 contracts under FAR:
  
                    RESTRICTED RIGHTS LEGEND
  
 Use, reproduction and disclosure by the US Government is
 subject to restrictions as set forth in subparagraphs (a)
 and (c) of the Commercial Computer Software - Restricted
 Rights clause in FAR 52.227-19.
  
 Gaussian, Inc.
 340 Quinnipiac St., Bldg. 40, Wallingford CT 06492
  
  
 ---------------------------------------------------------------
 Warning -- This program may not be used in any manner that
 competes with the business of Gaussian, Inc. or will provide
 assistance to any competitor of Gaussian, Inc.  The licensee
 of this program is prohibited from giving any competitor of
 Gaussian, Inc. access to this program.  By using this program,
 the user acknowledges that Gaussian, Inc. is engaged in the
 business of creating and licensing software in the field of
 computational chemistry and represents and warrants to the
 licensee that it is not a competitor of Gaussian, Inc. and that
 it will not use this program in any manner prohibited above.
 ---------------------------------------------------------------
  

 Cite this work as:
 Gaussian 16, Revision A.03,
 M. J. Frisch, G. W. Trucks, H. B. Schlegel, G. E. Scuseria, 
 M. A. Robb, J. R. Cheeseman, G. Scalmani, V. Barone, 
 G. A. Petersson, H. Nakatsuji, X. Li, M. Caricato, A. V. Marenich, 
 J. Bloino, B. G. Janesko, R. Gomperts, B. Mennucci, H. P. Hratchian, 
 J. V. Ortiz, A. F. Izmaylov, J. L. Sonnenberg, D. Williams-Young, 
 F. Ding, F. Lipparini, F. Egidi, J. Goings, B. Peng, A. Petrone, 
 T. Henderson, D. Ranasinghe, V. G. Zakrzewski, J. Gao, N. Rega, 
 G. Zheng, W. Liang, M. Hada, M. Ehara, K. Toyota, R. Fukuda, 
 J. Hasegawa, M. Ishida, T. Nakajima, Y. Honda, O. Kitao, H. Nakai, 
 T. Vreven, K. Throssell, J. A. Montgomery, Jr., J. E. Peralta, 
 F. Ogliaro, M. J. Bearpark, J. J. Heyd, E. N. Brothers, K. N. Kudin, 
 V. N. Staroverov, T. A. Keith, R. Kobayashi, J. Normand, 
 K. Raghavachari, A. P. Rendell, J. C. Burant, S. S. Iyengar, 
 J. Tomasi, M. Cossi, J. M. Millam, M. Klene, C. Adamo, R. Cammi, 
 J. W. Ochterski, R. L. Martin, K. Morokuma, O. Farkas, 
 J. B. Foresman, and D. J. Fox, Gaussian, Inc., Wallingford CT, 2016.
 
 ******************************************
 Gaussian 16:  ES64L-G16RevA.03 25-Dec-2016
                31-May-2021 
 ******************************************
 %nproc=8
 Will use up to    8 processors via shared memory.
 %Mem=4GB
 ----------------------------------------------------------------------
 #t B3LYP/LANL2DZ # SCRF=(Solvent=Water) # Gfinput IOP(6/7=3) Pop=hirsh
 feld Density Test # Units(Ang,Deg)
 ----------------------------------------------------------------------
 ----------
 3-tio2.pdb
 ----------
 Symbolic Z-matrix:
 Charge =  1 Multiplicity = 2
 Ti                   -1   -1.641     1.281    -0.014 
 Ti                   -1    1.10771   1.4132   -0.03946 
 Ti                   -1    3.85641   1.54539  -0.06492 
 O                    -1    2.59825   0.24907   0.2663 
 O                    -1    2.43627   2.63074  -0.53887 
 O                    -1   -0.25649   0.15493   0.47724 
 O                    -1   -0.2814    2.55791  -0.35239 
 O                    -1   -2.55713   2.59863  -0.32145 
 O                    -1    4.7771    0.2363    0.21798 
 
                    Distance matrix (angstroms):
                    1          2          3          4          5
     1  Ti   0.000000
     2  Ti   2.752000   0.000000
     3  Ti   5.504000   2.752000   0.000000
     4  O    4.372031   1.915826   1.836609   0.000000
     5  O    4.326823   1.870000   1.849165   2.519302   0.000000
     6  O    1.851000   1.926459   4.375305   2.864071   3.796453
     7  O    1.895660   1.827000   4.269583   3.742449   2.725034
     8  O    1.634000   3.862094   6.504506   5.695942   4.998231
     9  O    6.506700   3.862094   1.625240   2.179422   3.433019
                    6          7          8          9
     6  O    0.000000
     7  O    2.542288   0.000000
     8  O    3.449994   2.276301   0.000000
     9  O    5.040918   5.594962   7.724144   0.000000
 Framework group  C1[X(O6Ti3)]
 Deg. of freedom    21
                         Standard orientation:                         
 ---------------------------------------------------------------------
 Center     Atomic      Atomic             Coordinates (Angstroms)
 Number     Number       Type             X           Y           Z
 ---------------------------------------------------------------------
      1         22           0        2.726994    0.401258   -0.047705
      2         22           0        0.005248   -0.002642    0.001996
      3         22           0       -2.716498   -0.406541    0.051697
      4          8           0       -1.597126    1.046684   -0.039274
      5          8           0       -1.188846   -1.438791   -0.090267
      6          8           0        1.230515    1.480849    0.098021
      7          8           0        1.504924   -1.045720    0.031827
      8          8           0        3.772819   -0.850755    0.045392
      9          8           0       -3.765581    0.829526   -0.062169
 ---------------------------------------------------------------------
 Rotational constants (GHZ):           3.5585257           0.3919366           0.3533754
 AO basis set in the form of general basis input (Overlap normalization):
      1 0
 S   3 1.00       0.000000000000
      0.1098000000D+01 -0.1023676994D+00
      0.4178000000D+00 -0.3753172148D+00
      0.8720000000D-01  0.1215423149D+01
 S   3 1.00       0.000000000000
      0.4372000000D+01 -0.3637098367D+00
      0.1098000000D+01  0.8184533826D+00
      0.4178000000D+00  0.4184526423D+00
 S   1 1.00       0.000000000000
      0.3140000000D-01  0.1000000000D+01
 P   3 1.00       0.000000000000
      0.1252000000D+02 -0.4569080054D-01
      0.1491000000D+01  0.6203313074D+00
      0.4859000000D+00  0.4765329057D+00
 P   1 1.00       0.000000000000
      0.5300000000D-01  0.1000000000D+01
 P   1 1.00       0.000000000000
      0.1600000000D-01  0.1000000000D+01
 D   4 1.00       0.000000000000
      0.2021000000D+02  0.3416819898D-01
      0.5495000000D+01  0.1710005949D+00
      0.1699000000D+01  0.4405848869D+00
      0.4840000000D+00  0.6114245818D+00
 D   1 1.00       0.000000000000
      0.1157000000D+00  0.1000000000D+01
 ****
      2 0
 S   3 1.00       0.000000000000
      0.1098000000D+01 -0.1023676994D+00
      0.4178000000D+00 -0.3753172148D+00
      0.8720000000D-01  0.1215423149D+01
 S   3 1.00       0.000000000000
      0.4372000000D+01 -0.3637098367D+00
      0.1098000000D+01  0.8184533826D+00
      0.4178000000D+00  0.4184526423D+00
 S   1 1.00       0.000000000000
      0.3140000000D-01  0.1000000000D+01
 P   3 1.00       0.000000000000
      0.1252000000D+02 -0.4569080054D-01
      0.1491000000D+01  0.6203313074D+00
      0.4859000000D+00  0.4765329057D+00
 P   1 1.00       0.000000000000
      0.5300000000D-01  0.1000000000D+01
 P   1 1.00       0.000000000000
      0.1600000000D-01  0.1000000000D+01
 D   4 1.00       0.000000000000
      0.2021000000D+02  0.3416819898D-01
      0.5495000000D+01  0.1710005949D+00
      0.1699000000D+01  0.4405848869D+00
      0.4840000000D+00  0.6114245818D+00
 D   1 1.00       0.000000000000
      0.1157000000D+00  0.1000000000D+01
 ****
      3 0
 S   3 1.00       0.000000000000
      0.1098000000D+01 -0.1023676994D+00
      0.4178000000D+00 -0.3753172148D+00
      0.8720000000D-01  0.1215423149D+01
 S   3 1.00       0.000000000000
      0.4372000000D+01 -0.3637098367D+00
      0.1098000000D+01  0.8184533826D+00
      0.4178000000D+00  0.4184526423D+00
 S   1 1.00       0.000000000000
      0.3140000000D-01  0.1000000000D+01
 P   3 1.00       0.000000000000
      0.1252000000D+02 -0.4569080054D-01
      0.1491000000D+01  0.6203313074D+00
      0.4859000000D+00  0.4765329057D+00
 P   1 1.00       0.000000000000
      0.5300000000D-01  0.1000000000D+01
 P   1 1.00       0.000000000000
      0.1600000000D-01  0.1000000000D+01
 D   4 1.00       0.000000000000
      0.2021000000D+02  0.3416819898D-01
      0.5495000000D+01  0.1710005949D+00
      0.1699000000D+01  0.4405848869D+00
      0.4840000000D+00  0.6114245818D+00
 D   1 1.00       0.000000000000
      0.1157000000D+00  0.1000000000D+01
 ****
      4 0
 S   7 1.00       0.000000000000
      0.7817000000D+04  0.1176000331D-02
      0.1176000000D+04  0.8968002523D-02
      0.2732000000D+03  0.4286801206D-01
      0.8117000000D+02  0.1439300405D+00
      0.2718000000D+02  0.3556301000D+00
      0.9532000000D+01  0.4612481297D+00
      0.3414000000D+01  0.1402060394D+00
 S   2 1.00       0.000000000000
      0.9532000000D+01 -0.1541530739D+00
      0.9398000000D+00  0.1056914507D+01
 S   1 1.00       0.000000000000
      0.2846000000D+00  0.1000000000D+01
 P   4 1.00       0.000000000000
      0.3518000000D+02  0.1958000050D-01
      0.7904000000D+01  0.1242000032D+00
      0.2305000000D+01  0.3947140101D+00
      0.7171000000D+00  0.6273760161D+00
 P   1 1.00       0.000000000000
      0.2137000000D+00  0.1000000000D+01
 ****
      5 0
 S   7 1.00       0.000000000000
      0.7817000000D+04  0.1176000331D-02
      0.1176000000D+04  0.8968002523D-02
      0.2732000000D+03  0.4286801206D-01
      0.8117000000D+02  0.1439300405D+00
      0.2718000000D+02  0.3556301000D+00
      0.9532000000D+01  0.4612481297D+00
      0.3414000000D+01  0.1402060394D+00
 S   2 1.00       0.000000000000
      0.9532000000D+01 -0.1541530739D+00
      0.9398000000D+00  0.1056914507D+01
 S   1 1.00       0.000000000000
      0.2846000000D+00  0.1000000000D+01
 P   4 1.00       0.000000000000
      0.3518000000D+02  0.1958000050D-01
      0.7904000000D+01  0.1242000032D+00
      0.2305000000D+01  0.3947140101D+00
      0.7171000000D+00  0.6273760161D+00
 P   1 1.00       0.000000000000
      0.2137000000D+00  0.1000000000D+01
 ****
      6 0
 S   7 1.00       0.000000000000
      0.7817000000D+04  0.1176000331D-02
      0.1176000000D+04  0.8968002523D-02
      0.2732000000D+03  0.4286801206D-01
      0.8117000000D+02  0.1439300405D+00
      0.2718000000D+02  0.3556301000D+00
      0.9532000000D+01  0.4612481297D+00
      0.3414000000D+01  0.1402060394D+00
 S   2 1.00       0.000000000000
      0.9532000000D+01 -0.1541530739D+00
      0.9398000000D+00  0.1056914507D+01
 S   1 1.00       0.000000000000
      0.2846000000D+00  0.1000000000D+01
 P   4 1.00       0.000000000000
      0.3518000000D+02  0.1958000050D-01
      0.7904000000D+01  0.1242000032D+00
      0.2305000000D+01  0.3947140101D+00
      0.7171000000D+00  0.6273760161D+00
 P   1 1.00       0.000000000000
      0.2137000000D+00  0.1000000000D+01
 ****
      7 0
 S   7 1.00       0.000000000000
      0.7817000000D+04  0.1176000331D-02
      0.1176000000D+04  0.8968002523D-02
      0.2732000000D+03  0.4286801206D-01
      0.8117000000D+02  0.1439300405D+00
      0.2718000000D+02  0.3556301000D+00
      0.9532000000D+01  0.4612481297D+00
      0.3414000000D+01  0.1402060394D+00
 S   2 1.00       0.000000000000
      0.9532000000D+01 -0.1541530739D+00
      0.9398000000D+00  0.1056914507D+01
 S   1 1.00       0.000000000000
      0.2846000000D+00  0.1000000000D+01
 P   4 1.00       0.000000000000
      0.3518000000D+02  0.1958000050D-01
      0.7904000000D+01  0.1242000032D+00
      0.2305000000D+01  0.3947140101D+00
      0.7171000000D+00  0.6273760161D+00
 P   1 1.00       0.000000000000
      0.2137000000D+00  0.1000000000D+01
 ****
      8 0
 S   7 1.00       0.000000000000
      0.7817000000D+04  0.1176000331D-02
      0.1176000000D+04  0.8968002523D-02
      0.2732000000D+03  0.4286801206D-01
      0.8117000000D+02  0.1439300405D+00
      0.2718000000D+02  0.3556301000D+00
      0.9532000000D+01  0.4612481297D+00
      0.3414000000D+01  0.1402060394D+00
 S   2 1.00       0.000000000000
      0.9532000000D+01 -0.1541530739D+00
      0.9398000000D+00  0.1056914507D+01
 S   1 1.00       0.000000000000
      0.2846000000D+00  0.1000000000D+01
 P   4 1.00       0.000000000000
      0.3518000000D+02  0.1958000050D-01
      0.7904000000D+01  0.1242000032D+00
      0.2305000000D+01  0.3947140101D+00
      0.7171000000D+00  0.6273760161D+00
 P   1 1.00       0.000000000000
      0.2137000000D+00  0.1000000000D+01
 ****
      9 0
 S   7 1.00       0.000000000000
      0.7817000000D+04  0.1176000331D-02
      0.1176000000D+04  0.8968002523D-02
      0.2732000000D+03  0.4286801206D-01
      0.8117000000D+02  0.1439300405D+00
      0.2718000000D+02  0.3556301000D+00
      0.9532000000D+01  0.4612481297D+00
      0.3414000000D+01  0.1402060394D+00
 S   2 1.00       0.000000000000
      0.9532000000D+01 -0.1541530739D+00
      0.9398000000D+00  0.1056914507D+01
 S   1 1.00       0.000000000000
      0.2846000000D+00  0.1000000000D+01
 P   4 1.00       0.000000000000
      0.3518000000D+02  0.1958000050D-01
      0.7904000000D+01  0.1242000032D+00
      0.2305000000D+01  0.3947140101D+00
      0.7171000000D+00  0.6273760161D+00
 P   1 1.00       0.000000000000
      0.2137000000D+00  0.1000000000D+01
 ****

 Effective core potential in the form of general ECP input:
      1 0
 Ti1-ECP   2 10
 D component
  3
  1      265.3263909      -10.00000000    0.00000000
  2       47.7687815      -51.84278160    0.00000000
  2       11.8903334       -9.14291450    0.00000000
 S-D projection
  5
  0       81.4730696        3.00000000    0.00000000
  1       72.6496724       19.48255790    0.00000000
  2       31.8128213      207.33492790    0.00000000
  2        6.1664468      235.67445010    0.00000000
  2        5.8268347     -166.87843870    0.00000000
 P-D projection
  5
  0       50.2966943        5.00000000    0.00000000
  1       63.5089754        5.53488220    0.00000000
  2       26.0996084      177.84193840    0.00000000
  2        5.6022573      107.42071530    0.00000000
  2        5.2171069      -71.90659020    0.00000000
      2 0
 Ti2-ECP   2 10
 D component
  3
  1      265.3263909      -10.00000000    0.00000000
  2       47.7687815      -51.84278160    0.00000000
  2       11.8903334       -9.14291450    0.00000000
 S-D projection
  5
  0       81.4730696        3.00000000    0.00000000
  1       72.6496724       19.48255790    0.00000000
  2       31.8128213      207.33492790    0.00000000
  2        6.1664468      235.67445010    0.00000000
  2        5.8268347     -166.87843870    0.00000000
 P-D projection
  5
  0       50.2966943        5.00000000    0.00000000
  1       63.5089754        5.53488220    0.00000000
  2       26.0996084      177.84193840    0.00000000
  2        5.6022573      107.42071530    0.00000000
  2        5.2171069      -71.90659020    0.00000000
      3 0
 Ti3-ECP   2 10
 D component
  3
  1      265.3263909      -10.00000000    0.00000000
  2       47.7687815      -51.84278160    0.00000000
  2       11.8903334       -9.14291450    0.00000000
 S-D projection
  5
  0       81.4730696        3.00000000    0.00000000
  1       72.6496724       19.48255790    0.00000000
  2       31.8128213      207.33492790    0.00000000
  2        6.1664468      235.67445010    0.00000000
  2        5.8268347     -166.87843870    0.00000000
 P-D projection
  5
  0       50.2966943        5.00000000    0.00000000
  1       63.5089754        5.53488220    0.00000000
  2       26.0996084      177.84193840    0.00000000
  2        5.6022573      107.42071530    0.00000000
  2        5.2171069      -71.90659020    0.00000000
 
   120 basis functions,   306 primitive gaussians,   126 cartesian basis functions
    42 alpha electrons       41 beta electrons
       nuclear repulsion energy       586.5669931727 Hartrees.
 NAtoms=    9 NActive=    9 NUniq=    9 SFac= 1.00D+00 NAtFMM=   60 NAOKFM=F Big=F
 ------------------------------------------------------------------------------
 Polarizable Continuum Model (PCM)
 =================================
 Model                : PCM.
 Atomic radii         : UFF (Universal Force Field).
 Polarization charges : Total charges.
 Charge compensation  : None.
 Solution method      : On-the-fly selection.
 Cavity type          : Scaled VdW (van der Waals Surface) (Alpha=1.100).
 Cavity algorithm     : GePol (No added spheres)
                        Default sphere list used, NSphG=    9.
                        Lebedev-Laikov grids with approx.  5.0 points / Ang**2.
                        Smoothing algorithm: York/Karplus (Gamma=1.0000).
                        Polarization charges: spherical gaussians, with
                                              point-specific exponents (IZeta= 3).
                        Self-potential: point-specific (ISelfS= 7).
                        Self-field    : sphere-specific E.n sum rule (ISelfD= 2).
 Solvent              : Water, Eps=  78.355300 Eps(inf)=   1.777849
 ------------------------------------------------------------------------------
 Spheres list:
 ISph  on   Nord     Re0    Alpha      Xe            Ye            Ze
    1  Ti      1    1.5875  1.100      2.726994      0.401258     -0.047705
    2  Ti      2    1.5875  1.100      0.005248     -0.002642      0.001996
    3  Ti      3    1.5875  1.100     -2.716498     -0.406541      0.051697
    4   O      4    1.7500  1.100     -1.597126      1.046684     -0.039274
    5   O      5    1.7500  1.100     -1.188846     -1.438791     -0.090267
    6   O      6    1.7500  1.100      1.230515      1.480849      0.098021
    7   O      7    1.7500  1.100      1.504924     -1.045720      0.031827
    8   O      8    1.7500  1.100      3.772819     -0.850755      0.045392
    9   O      9    1.7500  1.100     -3.765581      0.829526     -0.062169
 ------------------------------------------------------------------------------
   1 Symmetry operations used in ECPInt.
 ECPInt:  NShTT=    1485 NPrTT=   10224 LenC2=    1449 LenP2D=    7176.
 LDataN:  DoStor=T MaxTD1= 4 Len=   56
 ExpMin= 1.60D-02 ExpMax= 7.82D+03 ExpMxC= 2.73D+02 IAcc=3 IRadAn=         5 AccDes= 0.00D+00
 Harris functional with IExCor=  402 and IRadAn=       5 diagonalized for initial guess.
 HarFok:  IExCor=  402 AccDes= 0.00D+00 IRadAn=         5 IDoV= 1 UseB2=F ITyADJ=14
 ICtDFT=  3500011 ScaDFX=  1.000000  1.000000  1.000000  1.000000
 FoFCou: FMM=F IPFlag=           0 FMFlag=      100000 FMFlg1=           0
         NFxFlg=           0 DoJE=T BraDBF=F KetDBF=T FulRan=T
         wScrn=  0.000000 ICntrl=       500 IOpCl=  0 I1Cent=   200000004 NGrid=           0
         NMat0=    1 NMatS0=      1 NMatT0=    0 NMatD0=    1 NMtDS0=    0 NMtDT0=    0
 Petite list used in FoFCou.
 Initial guess <Sx>= 0.0000 <Sy>= 0.0000 <Sz>= 0.5000 <S**2>= 0.7500 S= 0.5000
 Inv3:  Mode=1 IEnd=     4657548.
 Iteration    1 A*A^-1 deviation from unit magnitude is 3.11D-15 for    921.
 Iteration    1 A*A^-1 deviation from orthogonality  is 2.36D-15 for    558    394.
 Iteration    1 A^-1*A deviation from unit magnitude is 2.89D-15 for      2.
 Iteration    1 A^-1*A deviation from orthogonality  is 1.62D-15 for    365     42.
 EnCoef did     6 forward-backward iterations
 Error on total polarization charges =  0.02392
 SCF Done:  E(UB3LYP) =  -625.801184749     A.U. after   25 cycles
            NFock= 25  Conv=0.41D-08     -V/T= 2.1982
 <Sx>= 0.0000 <Sy>= 0.0000 <Sz>= 0.5000 <S**2>= 0.7869 S= 0.5183
 <L.S>=  0.00000000000    
 Annihilation of the first spin contaminant:
 S**2 before annihilation     0.7869,   after     0.7510

 **********************************************************************

            Population analysis using the SCF density.

 **********************************************************************

 Orbital symmetries:
 Alpha Orbitals:
       Occupied  (A) (A) (A) (A) (A) (A) (A) (A) (A) (A) (A) (A)
                 (A) (A) (A) (A) (A) (A) (A) (A) (A) (A) (A) (A)
                 (A) (A) (A) (A) (A) (A) (A) (A) (A) (A) (A) (A)
                 (A) (A) (A) (A) (A) (A)
       Virtual   (A) (A) (A) (A) (A) (A) (A) (A) (A) (A) (A) (A)
                 (A) (A) (A) (A) (A) (A) (A) (A) (A) (A) (A) (A)
                 (A) (A) (A) (A) (A) (A) (A) (A) (A) (A) (A) (A)
                 (A) (A) (A) (A) (A) (A) (A) (A) (A) (A) (A) (A)
                 (A) (A) (A) (A) (A) (A) (A) (A) (A) (A) (A) (A)
                 (A) (A) (A) (A) (A) (A) (A) (A) (A) (A) (A) (A)
                 (A) (A) (A) (A) (A) (A)
 Beta  Orbitals:
       Occupied  (A) (A) (A) (A) (A) (A) (A) (A) (A) (A) (A) (A)
                 (A) (A) (A) (A) (A) (A) (A) (A) (A) (A) (A) (A)
                 (A) (A) (A) (A) (A) (A) (A) (A) (A) (A) (A) (A)
                 (A) (A) (A) (A) (A)
       Virtual   (A) (A) (A) (A) (A) (A) (A) (A) (A) (A) (A) (A)
                 (A) (A) (A) (A) (A) (A) (A) (A) (A) (A) (A) (A)
                 (A) (A) (A) (A) (A) (A) (A) (A) (A) (A) (A) (A)
                 (A) (A) (A) (A) (A) (A) (A) (A) (A) (A) (A) (A)
                 (A) (A) (A) (A) (A) (A) (A) (A) (A) (A) (A) (A)
                 (A) (A) (A) (A) (A) (A) (A) (A) (A) (A) (A) (A)
                 (A) (A) (A) (A) (A) (A) (A)
 The electronic state is 2-A.
 Alpha  occ. eigenvalues --  -19.20173 -19.17552 -19.17502 -19.14211 -19.13475
 Alpha  occ. eigenvalues --  -19.13253  -2.49868  -2.49127  -2.47418  -1.63358
 Alpha  occ. eigenvalues --   -1.62154  -1.61352  -1.61205  -1.61192  -1.60546
 Alpha  occ. eigenvalues --   -1.59991  -1.59460  -1.59126  -0.98720  -0.95241
 Alpha  occ. eigenvalues --   -0.94768  -0.92305  -0.90649  -0.87672  -0.48046
 Alpha  occ. eigenvalues --   -0.43166  -0.42748  -0.42440  -0.40536  -0.40396
 Alpha  occ. eigenvalues --   -0.38902  -0.38079  -0.37557  -0.37352  -0.36271
 Alpha  occ. eigenvalues --   -0.34472  -0.33644  -0.32056  -0.31760  -0.30577
 Alpha  occ. eigenvalues --   -0.29862  -0.29272
 Alpha virt. eigenvalues --   -0.13980  -0.13173  -0.12224  -0.11666  -0.11546
 Alpha virt. eigenvalues --   -0.11256  -0.09794  -0.08725  -0.06749  -0.06486
 Alpha virt. eigenvalues --   -0.04960  -0.04844  -0.03456  -0.03022   0.00833
 Alpha virt. eigenvalues --    0.00959   0.01417   0.01777   0.02342   0.02424
 Alpha virt. eigenvalues --    0.03559   0.04466   0.04489   0.04919   0.06422
 Alpha virt. eigenvalues --    0.09061   0.10103   0.10364   0.10947   0.12824
 Alpha virt. eigenvalues --    0.13968   0.14752   0.14920   0.18201   0.18674
 Alpha virt. eigenvalues --    0.22875   0.30431   0.30631   0.32154   0.32635
 Alpha virt. eigenvalues --    0.33309   0.34067   0.35326   0.36032   0.38990
 Alpha virt. eigenvalues --    0.40553   0.41286   0.44970   0.46716   0.49029
 Alpha virt. eigenvalues --    0.52116   0.65825   0.68419   0.71458   0.72678
 Alpha virt. eigenvalues --    0.73260   0.75450   0.76978   0.77572   0.79725
 Alpha virt. eigenvalues --    0.80912   0.86134   0.86478   0.87720   0.88147
 Alpha virt. eigenvalues --    0.95996   1.00924   1.03432   1.05055   1.32249
 Alpha virt. eigenvalues --    1.36706   1.49983   1.67299   1.70235   1.90682
 Alpha virt. eigenvalues --    4.12333   9.45178  15.39080
  Beta  occ. eigenvalues --  -19.18878 -19.16882 -19.16335 -19.14160 -19.13171
  Beta  occ. eigenvalues --  -19.13106  -2.50307  -2.49553  -2.47624  -1.63731
  Beta  occ. eigenvalues --   -1.62595  -1.61945  -1.61656  -1.61527  -1.60966
  Beta  occ. eigenvalues --   -1.60220  -1.59691  -1.59309  -0.95900  -0.93572
  Beta  occ. eigenvalues --   -0.93208  -0.91409  -0.88885  -0.86859  -0.43417
  Beta  occ. eigenvalues --   -0.42493  -0.41758  -0.40719  -0.39374  -0.38659
  Beta  occ. eigenvalues --   -0.38344  -0.37188  -0.36738  -0.36572  -0.35933
  Beta  occ. eigenvalues --   -0.32998  -0.30931  -0.30690  -0.30093  -0.28962
  Beta  occ. eigenvalues --   -0.28474
  Beta virt. eigenvalues --   -0.21714  -0.14295  -0.13478  -0.12447  -0.11818
  Beta virt. eigenvalues --   -0.11663  -0.11425  -0.09688  -0.08656  -0.06691
  Beta virt. eigenvalues --   -0.06080  -0.04994  -0.04772  -0.03089  -0.02856
  Beta virt. eigenvalues --    0.00874   0.01002   0.01441   0.01790   0.02385
  Beta virt. eigenvalues --    0.02479   0.03827   0.04484   0.04514   0.04980
  Beta virt. eigenvalues --    0.06596   0.09144   0.10152   0.10435   0.11007
  Beta virt. eigenvalues --    0.12864   0.14121   0.14947   0.15152   0.18365
  Beta virt. eigenvalues --    0.18806   0.22952   0.30519   0.30809   0.32249
  Beta virt. eigenvalues --    0.32625   0.33336   0.34188   0.35407   0.36073
  Beta virt. eigenvalues --    0.38972   0.40709   0.41435   0.45083   0.46836
  Beta virt. eigenvalues --    0.49058   0.52260   0.66598   0.69268   0.72183
  Beta virt. eigenvalues --    0.73063   0.74323   0.75971   0.77548   0.77997
  Beta virt. eigenvalues --    0.81204   0.81963   0.86874   0.87087   0.88208
  Beta virt. eigenvalues --    0.88560   0.96186   1.02225   1.03752   1.05732
  Beta virt. eigenvalues --    1.32991   1.37500   1.51142   1.67639   1.71003
  Beta virt. eigenvalues --    1.91308   4.12730   9.45574  15.39869
     Alpha Molecular Orbital Coefficients:
                           1         2         3         4         5
                           O         O         O         O         O
     Eigenvalues --   -19.20173 -19.17552 -19.17502 -19.14211 -19.13475
   1 1   Ti 1S          0.00027   0.00019   0.00023  -0.00033   0.00174
   2        2S          0.00005   0.00000   0.00007  -0.00013   0.00066
   3        3S          0.00077  -0.00026   0.00031   0.00118  -0.00076
   4        4PX         0.00004  -0.00011   0.00001   0.00000   0.00019
   5        4PY         0.00001  -0.00012   0.00000  -0.00000  -0.00018
   6        4PZ         0.00000   0.00001   0.00000  -0.00000   0.00003
   7        5PX        -0.00050  -0.00026  -0.00025  -0.00052   0.00074
   8        5PY         0.00046   0.00004   0.00013  -0.00062  -0.00013
   9        5PZ         0.00000   0.00001  -0.00000  -0.00003   0.00008
  10        6PX        -0.00008   0.00017   0.00006  -0.00006  -0.00020
  11        6PY        -0.00006  -0.00006  -0.00003   0.00004   0.00014
  12        6PZ        -0.00001   0.00000   0.00000   0.00001  -0.00004
  13        7D 0       -0.00002  -0.00006   0.00000   0.00001  -0.00003
  14        7D+1       -0.00000  -0.00001   0.00000  -0.00001  -0.00000
  15        7D-1       -0.00000  -0.00001  -0.00000   0.00000   0.00000
  16        7D+2       -0.00004  -0.00004  -0.00000  -0.00001   0.00002
  17        7D-2        0.00002   0.00013  -0.00000  -0.00002  -0.00006
  18        8D 0       -0.00007  -0.00029  -0.00006   0.00013  -0.00054
  19        8D+1        0.00001  -0.00002   0.00001   0.00003   0.00001
  20        8D-1        0.00001   0.00000   0.00001  -0.00003   0.00000
  21        8D+2        0.00022   0.00016   0.00010  -0.00006   0.00009
  22        8D-2       -0.00043  -0.00002  -0.00017   0.00065  -0.00137
  23 2   Ti 1S          0.00131   0.00130  -0.00020   0.00126  -0.00024
  24        2S          0.00028   0.00034  -0.00003   0.00029  -0.00005
  25        3S         -0.00045  -0.00058   0.00006  -0.00050   0.00015
  26        4PX        -0.00009   0.00016  -0.00000  -0.00008   0.00001
  27        4PY         0.00007  -0.00012   0.00003  -0.00013  -0.00003
  28        4PZ        -0.00000   0.00000   0.00000  -0.00001   0.00000
  29        5PX        -0.00134   0.00130  -0.00040  -0.00142   0.00045
  30        5PY        -0.00007   0.00001   0.00025  -0.00010  -0.00023
  31        5PZ         0.00000  -0.00000   0.00004   0.00001  -0.00004
  32        6PX        -0.00000  -0.00001  -0.00025  -0.00024   0.00025
  33        6PY        -0.00018   0.00022  -0.00003   0.00010   0.00003
  34        6PZ         0.00002  -0.00002  -0.00002   0.00002   0.00002
  35        7D 0       -0.00009  -0.00008  -0.00001  -0.00008  -0.00000
  36        7D+1        0.00000   0.00000  -0.00000   0.00001  -0.00000
  37        7D-1       -0.00001  -0.00001  -0.00001   0.00001  -0.00000
  38        7D+2        0.00003   0.00003   0.00001  -0.00004   0.00001
  39        7D-2       -0.00013  -0.00013  -0.00001   0.00012  -0.00001
  40        8D 0       -0.00064  -0.00061   0.00014  -0.00061   0.00016
  41        8D+1        0.00004   0.00003  -0.00000   0.00009  -0.00001
  42        8D-1       -0.00005  -0.00004  -0.00004   0.00009  -0.00004
  43        8D+2        0.00090   0.00081  -0.00001  -0.00018   0.00005
  44        8D-2       -0.00175  -0.00176  -0.00094   0.00163  -0.00085
  45 3   Ti 1S          0.00018   0.00030   0.00175   0.00074   0.00024
  46        2S          0.00003   0.00007   0.00068   0.00020   0.00008
  47        3S         -0.00035   0.00079  -0.00070  -0.00070   0.00029
  48        4PX         0.00014  -0.00003  -0.00021   0.00012  -0.00000
  49        4PY         0.00015  -0.00001   0.00018  -0.00008  -0.00000
  50        4PZ        -0.00001  -0.00001  -0.00003  -0.00002  -0.00000
  51        5PX         0.00018   0.00052  -0.00069   0.00006   0.00024
  52        5PY         0.00001  -0.00046   0.00011  -0.00006  -0.00011
  53        5PZ        -0.00001  -0.00000  -0.00009  -0.00002  -0.00000
  54        6PX        -0.00018   0.00009   0.00021  -0.00012  -0.00006
  55        6PY         0.00003   0.00005  -0.00014  -0.00007   0.00002
  56        6PZ         0.00000   0.00001   0.00005   0.00001  -0.00000
  57        7D 0       -0.00005  -0.00003  -0.00002  -0.00008  -0.00000
  58        7D+1       -0.00001  -0.00000  -0.00000  -0.00002   0.00000
  59        7D-1       -0.00001  -0.00000   0.00000   0.00001  -0.00000
  60        7D+2       -0.00004  -0.00003   0.00003   0.00004  -0.00000
  61        7D-2        0.00013   0.00001  -0.00006  -0.00015  -0.00000
  62        8D 0       -0.00027  -0.00007  -0.00053  -0.00045  -0.00006
  63        8D+1       -0.00003   0.00000   0.00003  -0.00005   0.00000
  64        8D-1       -0.00000   0.00002  -0.00001   0.00006   0.00001
  65        8D+2        0.00011   0.00021   0.00017   0.00021   0.00008
  66        8D-2       -0.00001  -0.00044  -0.00137  -0.00055  -0.00017
  67 4   O  1S          0.99877  -0.00014   0.00013   0.00004  -0.00001
  68        2S          0.00694   0.00033  -0.00009  -0.00004   0.00005
  69        3S         -0.00506  -0.00122   0.00006   0.00013  -0.00019
  70        4PX        -0.00006   0.00004   0.00010  -0.00001   0.00003
  71        4PY        -0.00083  -0.00000   0.00004   0.00006   0.00000
  72        4PZ         0.00004   0.00000  -0.00000   0.00000  -0.00000
  73        5PX        -0.00038  -0.00061  -0.00054   0.00011  -0.00018
  74        5PY         0.00099   0.00028  -0.00018  -0.00003  -0.00001
  75        5PZ        -0.00004  -0.00001   0.00001  -0.00000   0.00000
  76 5   O  1S         -0.00004  -0.00003   0.00007   0.99884   0.00018
  77        2S         -0.00004  -0.00002   0.00019   0.00669  -0.00010
  78        3S          0.00013   0.00015  -0.00062  -0.00523   0.00038
  79        4PX        -0.00001  -0.00004  -0.00005  -0.00010  -0.00002
  80        4PY        -0.00006  -0.00002  -0.00001   0.00079  -0.00001
  81        4PZ        -0.00000   0.00000   0.00001   0.00006  -0.00000
  82        5PX         0.00019   0.00031   0.00062   0.00002   0.00018
  83        5PY         0.00004   0.00002   0.00003  -0.00105   0.00017
  84        5PZ         0.00000  -0.00001  -0.00011  -0.00009   0.00001
  85 6   O  1S         -0.00001  -0.00005  -0.00003   0.00028   0.00107
  86        2S         -0.00001  -0.00003  -0.00009   0.00023   0.00020
  87        3S          0.00014   0.00010   0.00036  -0.00079  -0.00066
  88        4PX         0.00002   0.00000   0.00001  -0.00004   0.00005
  89        4PY         0.00001   0.00005   0.00002  -0.00002   0.00001
  90        4PZ        -0.00000   0.00000   0.00000   0.00000  -0.00001
  91        5PX        -0.00026  -0.00017  -0.00015   0.00055  -0.00063
  92        5PY         0.00000  -0.00005  -0.00019   0.00037  -0.00000
  93        5PZ         0.00002   0.00000  -0.00001  -0.00000   0.00010
  94 7   O  1S          0.00016   0.99880  -0.00153   0.00003   0.00006
  95        2S          0.00035   0.00677   0.00006  -0.00003  -0.00006
  96        3S         -0.00133  -0.00500  -0.00027   0.00016  -0.00000
  97        4PX        -0.00002  -0.00014  -0.00003   0.00004  -0.00009
  98        4PY        -0.00000   0.00088  -0.00001   0.00000  -0.00003
  99        4PZ         0.00000  -0.00004   0.00000  -0.00000   0.00000
 100        5PX         0.00049   0.00044   0.00022  -0.00018   0.00041
 101        5PY        -0.00030  -0.00099   0.00003  -0.00009   0.00016
 102        5PZ        -0.00000   0.00003  -0.00000   0.00001  -0.00001
 103 8   O  1S          0.00001  -0.00005   0.00002  -0.00018   0.99882
 104        2S          0.00005  -0.00006   0.00005  -0.00011   0.00650
 105        3S         -0.00021  -0.00002  -0.00016   0.00045  -0.00440
 106        4PX         0.00000   0.00005  -0.00000  -0.00001  -0.00044
 107        4PY         0.00000   0.00000   0.00001  -0.00002   0.00062
 108        4PZ        -0.00000  -0.00000  -0.00000   0.00001  -0.00004
 109        5PX         0.00002  -0.00012   0.00003   0.00002   0.00041
 110        5PY        -0.00010  -0.00003  -0.00006   0.00017  -0.00074
 111        5PZ         0.00001   0.00002   0.00001  -0.00005   0.00010
 112 9   O  1S         -0.00012   0.00153   0.99877  -0.00007  -0.00001
 113        2S         -0.00009   0.00008   0.00677   0.00020   0.00005
 114        3S          0.00004  -0.00027  -0.00455  -0.00075  -0.00017
 115        4PX        -0.00005   0.00000   0.00055  -0.00003   0.00000
 116        4PY        -0.00000  -0.00000  -0.00063   0.00000  -0.00000
 117        4PZ         0.00000   0.00000   0.00006   0.00001   0.00000
 118        5PX         0.00018  -0.00006  -0.00052   0.00003  -0.00003
 119        5PY         0.00000   0.00009   0.00076   0.00020   0.00005
 120        5PZ        -0.00002  -0.00002  -0.00012  -0.00011  -0.00002
                           6         7         8         9        10
                           O         O         O         O         O
     Eigenvalues --   -19.13253  -2.49868  -2.49127  -2.47418  -1.63358
   1 1   Ti 1S          0.00074  -0.00146   0.00051  -0.01142   0.00343
   2        2S          0.00019   0.03756  -0.00631   1.00045  -0.00709
   3        3S         -0.00074  -0.00515  -0.00399   0.00244   0.01152
   4        4PX        -0.00011  -0.00153   0.00001   0.00207  -0.18268
   5        4PY         0.00008  -0.00112   0.00022  -0.01919  -0.02455
   6        4PZ         0.00002   0.00011   0.00001   0.00301   0.00546
   7        5PX        -0.00003   0.00155   0.00301   0.00313  -0.01247
   8        5PY         0.00008   0.00112   0.00053   0.00366   0.00036
   9        5PZ         0.00002  -0.00033   0.00011  -0.00002  -0.00028
  10        6PX         0.00012   0.00074   0.00012  -0.00097   0.00209
  11        6PY         0.00007  -0.00028  -0.00016  -0.00023  -0.00067
  12        6PZ        -0.00001   0.00011   0.00001  -0.00012   0.00024
  13        7D 0       -0.00008  -0.00041   0.00000   0.00208  -0.00234
  14        7D+1       -0.00002  -0.00001  -0.00001  -0.00007  -0.00053
  15        7D-1        0.00001  -0.00002   0.00000   0.00005  -0.00002
  16        7D+2        0.00003   0.00105  -0.00008   0.00078   0.00362
  17        7D-2       -0.00016   0.00042   0.00003   0.00350   0.00358
  18        8D 0       -0.00044   0.00341  -0.00035   0.00113   0.00196
  19        8D+1       -0.00006   0.00049  -0.00018  -0.00012   0.00046
  20        8D-1        0.00006  -0.00026   0.00010   0.00026  -0.00025
  21        8D+2        0.00017   0.00143  -0.00162  -0.00024   0.00582
  22        8D-2       -0.00057   0.00189  -0.00130  -0.00151   0.00291
  23 2   Ti 1S          0.00130  -0.01277   0.00158   0.00032  -0.00081
  24        2S          0.00028   0.99305  -0.12985  -0.03902   0.00211
  25        3S         -0.00048   0.01058   0.00231   0.00305  -0.00147
  26        4PX         0.00005   0.00021  -0.00176   0.00175   0.84176
  27        4PY         0.00010  -0.00265   0.00026   0.00031   0.00119
  28        4PZ         0.00001  -0.00007   0.00006  -0.00004   0.01489
  29        5PX         0.00144   0.00026   0.00047  -0.00022  -0.01617
  30        5PY         0.00013  -0.00033   0.00178  -0.00161  -0.00188
  31        5PZ        -0.00001   0.00003   0.00016  -0.00016   0.00083
  32        6PX         0.00025   0.00008   0.00086  -0.00070  -0.00505
  33        6PY        -0.00011   0.00047   0.00003  -0.00025  -0.00015
  34        6PZ        -0.00002  -0.00004  -0.00021   0.00020  -0.00026
  35        7D 0       -0.00009   0.00111  -0.00058  -0.00048   0.00063
  36        7D+1        0.00001  -0.00007  -0.00002  -0.00003  -0.00002
  37        7D-1        0.00001  -0.00020   0.00001  -0.00001  -0.00009
  38        7D+2       -0.00004   0.00402   0.00021   0.00061  -0.00077
  39        7D-2        0.00012  -0.00025   0.00017   0.00022  -0.00270
  40        8D 0       -0.00063   0.00168   0.00241   0.00267  -0.00082
  41        8D+1        0.00009   0.00029  -0.00038  -0.00032   0.00024
  42        8D-1        0.00010   0.00007  -0.00027  -0.00025   0.00011
  43        8D+2       -0.00021  -0.00422   0.00555   0.00430  -0.00346
  44        8D-2        0.00158  -0.00088  -0.00180  -0.00154  -0.00393
  45 3   Ti 1S         -0.00031  -0.00254  -0.01114   0.00022  -0.00332
  46        2S         -0.00013   0.12875   0.99257   0.00213   0.00437
  47        3S          0.00120  -0.00405   0.00285  -0.00409  -0.00945
  48        4PX        -0.00001   0.00133  -0.00213   0.00013  -0.45487
  49        4PY         0.00000   0.00340   0.02355   0.00002   0.03503
  50        4PZ         0.00001  -0.00048  -0.00377  -0.00003   0.00513
  51        5PX         0.00054  -0.00151  -0.00278  -0.00295  -0.00952
  52        5PY         0.00058  -0.00062  -0.00399  -0.00035  -0.00221
  53        5PZ         0.00003   0.00033   0.00000  -0.00008  -0.00006
  54        6PX         0.00005  -0.00054   0.00092  -0.00023   0.00180
  55        6PY        -0.00003  -0.00021   0.00044   0.00018  -0.00012
  56        6PZ        -0.00001  -0.00008   0.00014  -0.00002   0.00017
  57        7D 0        0.00001  -0.00035   0.00078  -0.00000   0.00169
  58        7D+1       -0.00001  -0.00001  -0.00006  -0.00001   0.00146
  59        7D-1        0.00000  -0.00003  -0.00013  -0.00000  -0.00038
  60        7D+2       -0.00001   0.00110   0.00030   0.00003  -0.00513
  61        7D-2       -0.00002   0.00055   0.00238   0.00010  -0.00922
  62        8D 0        0.00012   0.00337   0.00095   0.00009  -0.00121
  63        8D+1        0.00003   0.00052  -0.00023  -0.00011  -0.00035
  64        8D-1       -0.00002  -0.00027   0.00038   0.00003   0.00043
  65        8D+2       -0.00004   0.00118  -0.00012  -0.00137  -0.00238
  66        8D-2        0.00062   0.00219  -0.00175  -0.00083  -0.00314
  67 4   O  1S          0.00001  -0.00260  -0.00284   0.00008   0.01523
  68        2S         -0.00001   0.00417   0.00513  -0.00038  -0.03345
  69        3S          0.00011   0.00710   0.00528   0.00051  -0.02250
  70        4PX        -0.00002   0.00417  -0.00495  -0.00029  -0.01096
  71        4PY         0.00000  -0.00389  -0.00546  -0.00003   0.02187
  72        4PZ         0.00000   0.00016   0.00032  -0.00001  -0.00098
  73        5PX         0.00013  -0.00338   0.00227   0.00109   0.00043
  74        5PY         0.00007  -0.00006   0.00270   0.00086  -0.00039
  75        5PZ        -0.00001   0.00009  -0.00013   0.00005  -0.00005
  76 5   O  1S         -0.00027  -0.00282  -0.00231   0.00007   0.01468
  77        2S          0.00023   0.00455   0.00356  -0.00079  -0.03192
  78        3S         -0.00086   0.00780   0.00614   0.00250  -0.02049
  79        4PX         0.00004   0.00317  -0.00573  -0.00021   0.00168
  80        4PY         0.00001   0.00526   0.00308  -0.00012  -0.02241
  81        4PZ        -0.00000   0.00034   0.00039  -0.00002  -0.00186
  82        5PX        -0.00054  -0.00361   0.00493   0.00152   0.00278
  83        5PY        -0.00034  -0.00119  -0.00057   0.00015   0.00114
  84        5PZ         0.00001   0.00009   0.00010   0.00008   0.00006
  85 6   O  1S          0.99885  -0.00205   0.00025  -0.00257  -0.00881
  86        2S          0.00665   0.00304  -0.00107   0.00392   0.01882
  87        3S         -0.00516   0.00702   0.00178   0.00683   0.01445
  88        4PX         0.00008  -0.00303   0.00052   0.00526  -0.00332
  89        4PY        -0.00075  -0.00407   0.00049  -0.00367  -0.01468
  90        4PZ        -0.00005  -0.00025   0.00004  -0.00043  -0.00103
  91        5PX         0.00003   0.00355  -0.00238  -0.00413   0.00526
  92        5PY         0.00106   0.00074  -0.00028   0.00040  -0.00055
  93        5PZ         0.00009  -0.00011  -0.00008  -0.00010  -0.00016
  94 7   O  1S          0.00005  -0.00312   0.00041  -0.00233  -0.01487
  95        2S         -0.00002   0.00561  -0.00092   0.00386   0.03332
  96        3S          0.00010   0.00632  -0.00029   0.00591   0.01794
  97        4PX         0.00000  -0.00597   0.00082   0.00387  -0.01503
  98        4PY        -0.00006   0.00450  -0.00045   0.00454   0.02007
  99        4PZ        -0.00000  -0.00012   0.00002  -0.00023  -0.00060
 100        5PX        -0.00007   0.00490  -0.00144  -0.00172   0.00738
 101        5PY         0.00001  -0.00058  -0.00102  -0.00211   0.00043
 102        5PZ         0.00000  -0.00009  -0.00000   0.00008  -0.00001
 103 8   O  1S         -0.00106  -0.00025   0.00005  -0.00649   0.00310
 104        2S          0.00020   0.00038  -0.00001   0.01358  -0.00681
 105        3S         -0.00076   0.00218  -0.00091   0.00331  -0.00036
 106        4PX         0.00003  -0.00070   0.00017  -0.00898   0.00154
 107        4PY        -0.00000   0.00051  -0.00014   0.01072  -0.00492
 108        4PZ        -0.00001   0.00003  -0.00002  -0.00079   0.00047
 109        5PX        -0.00001   0.00127  -0.00030   0.00323   0.00109
 110        5PY        -0.00020  -0.00051   0.00035  -0.00512  -0.00042
 111        5PZ         0.00010  -0.00048   0.00016   0.00042  -0.00053
 112 9   O  1S          0.00003  -0.00090  -0.00694  -0.00001  -0.01117
 113        2S         -0.00010   0.00178   0.01440   0.00003   0.02469
 114        3S          0.00044   0.00241   0.00368  -0.00039   0.00854
 115        4PX         0.00002   0.00158   0.00961  -0.00006   0.00895
 116        4PY         0.00002  -0.00155  -0.01114   0.00004  -0.01629
 117        4PZ        -0.00001   0.00006   0.00103   0.00001   0.00162
 118        5PX        -0.00003  -0.00160  -0.00304   0.00025  -0.00086
 119        5PY        -0.00016   0.00091   0.00508  -0.00030   0.00201
 120        5PZ         0.00005   0.00050  -0.00059  -0.00008  -0.00069
                          11        12        13        14        15
                           O         O         O         O         O
     Eigenvalues --    -1.62154  -1.61352  -1.61205  -1.61192  -1.60546
   1 1   Ti 1S         -0.00126  -0.00010   0.00087  -0.00060  -0.00009
   2        2S          0.00232  -0.00023  -0.00307   0.00145  -0.00030
   3        3S          0.00446  -0.00002  -0.00171   0.00359   0.00019
   4        4PX         0.08547   0.00300  -0.12036  -0.21563   0.00872
   5        4PY         0.02472  -0.00184  -0.05846   0.10795  -0.00921
   6        4PZ        -0.00284   0.02923   0.00149   0.00220  -0.00397
   7        5PX        -0.00140  -0.00034   0.00073  -0.00093  -0.00017
   8        5PY        -0.00235   0.00006   0.00324  -0.00672   0.00011
   9        5PZ        -0.00006   0.00282  -0.00021  -0.00004  -0.00002
  10        6PX         0.00008   0.00002  -0.00050  -0.00016  -0.00003
  11        6PY        -0.00002  -0.00005  -0.00240   0.00286  -0.00022
  12        6PZ        -0.00003  -0.00293   0.00018   0.00025   0.00070
  13        7D 0        0.00103   0.00008  -0.00127   0.00022  -0.00006
  14        7D+1        0.00024  -0.00085  -0.00023  -0.00067   0.00013
  15        7D-1        0.00005  -0.00033  -0.00006   0.00043   0.00002
  16        7D+2       -0.00096  -0.00016   0.00045   0.00347  -0.00010
  17        7D-2       -0.00175  -0.00011   0.00234   0.00292  -0.00012
  18        8D 0       -0.00046   0.00009   0.00020   0.00107   0.00015
  19        8D+1        0.00028  -0.00183  -0.00011   0.00044  -0.00031
  20        8D-1       -0.00026  -0.00056   0.00043  -0.00094   0.00007
  21        8D+2        0.00063   0.00065  -0.00058  -0.00131   0.00018
  22        8D-2        0.00152   0.00039  -0.00165   0.00432   0.00018
  23 2   Ti 1S         -0.00180   0.00009   0.00265   0.00056  -0.00019
  24        2S          0.00511  -0.00041  -0.00961  -0.00296   0.00007
  25        3S         -0.00030  -0.00021  -0.00363   0.00219  -0.00146
  26        4PX        -0.28222   0.00095   0.26627   0.18161   0.00089
  27        4PY         0.23049  -0.02516  -0.44026   0.83909  -0.02969
  28        4PZ        -0.01763   0.99333  -0.06434  -0.00185  -0.08432
  29        5PX         0.00068   0.00005   0.00297  -0.00961   0.00111
  30        5PY        -0.00270  -0.00059  -0.01106   0.00608  -0.00184
  31        5PZ        -0.00071  -0.00416   0.00046   0.00109   0.00195
  32        6PX        -0.00239   0.00009   0.00026  -0.00127  -0.00007
  33        6PY         0.00203   0.00020   0.00562  -0.00472   0.00084
  34        6PZ         0.00036   0.00580  -0.00042  -0.00068  -0.00259
  35        7D 0        0.00167  -0.00019  -0.00301  -0.00070  -0.00003
  36        7D+1        0.00007  -0.00034   0.00003  -0.00012  -0.00085
  37        7D-1        0.00002  -0.00071   0.00007  -0.00007  -0.00002
  38        7D+2       -0.00150   0.00021   0.00327   0.00322   0.00010
  39        7D-2       -0.00099  -0.00011  -0.00055   0.00025  -0.00016
  40        8D 0       -0.00211   0.00009   0.00151   0.00236   0.00020
  41        8D+1        0.00079  -0.00019  -0.00015  -0.00068  -0.00230
  42        8D-1        0.00090  -0.00041   0.00038  -0.00028   0.00014
  43        8D+2       -0.00875   0.00012   0.00565   0.00809  -0.00263
  44        8D-2        0.00312   0.00070   0.01035   0.00523   0.00156
  45 3   Ti 1S          0.00673   0.00073   0.00710   0.00201  -0.00076
  46        2S         -0.03222  -0.00157  -0.01806   0.00136   0.00139
  47        3S         -0.00587  -0.00013   0.00019  -0.00774   0.00135
  48        4PX        -0.47847   0.03901   0.57892   0.42086   0.01532
  49        4PY         0.75719   0.06029   0.59997   0.09981   0.09670
  50        4PZ        -0.06209   0.07597  -0.08580   0.01136   0.99051
  51        5PX         0.00244  -0.00033   0.00127  -0.00615   0.00088
  52        5PY         0.00275   0.00070   0.01128  -0.00425   0.00176
  53        5PZ         0.00061   0.00249  -0.00064  -0.00066  -0.00072
  54        6PX        -0.00021   0.00010   0.00048   0.00048   0.00011
  55        6PY        -0.00239  -0.00020  -0.00414   0.00277  -0.00056
  56        6PZ        -0.00027  -0.00272   0.00021   0.00048   0.00266
  57        7D 0       -0.00959  -0.00083  -0.00607  -0.00033  -0.00179
  58        7D+1        0.00188   0.00081  -0.00113  -0.00099  -0.00006
  59        7D-1       -0.00316   0.00063  -0.00195   0.00013   0.00832
  60        7D+2       -0.00972  -0.00049  -0.00633  -0.00171  -0.00098
  61        7D-2       -0.01121   0.00055   0.00704   0.00806   0.00088
  62        8D 0        0.00225  -0.00018  -0.00211  -0.00227   0.00021
  63        8D+1        0.00013   0.00173  -0.00030  -0.00090  -0.00149
  64        8D-1        0.00038   0.00014  -0.00053   0.00081   0.00148
  65        8D+2        0.00394  -0.00091  -0.00387  -0.00587   0.00001
  66        8D-2        0.00502  -0.00012   0.00521  -0.00588   0.00173
  67 4   O  1S         -0.01106  -0.00082  -0.00955  -0.01111  -0.00055
  68        2S          0.02439   0.00181   0.02237   0.02542   0.00111
  69        3S          0.01641   0.00116   0.00874   0.01549   0.00139
  70        4PX        -0.00106  -0.00233  -0.02746   0.00300  -0.00120
  71        4PY        -0.01104  -0.00130  -0.01706  -0.01342  -0.00054
  72        4PZ         0.00040   0.00523   0.00043   0.00099   0.00610
  73        5PX        -0.00592   0.00123   0.01426   0.00492   0.00051
  74        5PY         0.00116   0.00008   0.00439   0.00427  -0.00007
  75        5PZ        -0.00021   0.00089  -0.00033  -0.00014  -0.00030
  76 5   O  1S          0.01299   0.00055  -0.00506   0.00682   0.00151
  77        2S         -0.02830  -0.00133   0.01184  -0.01571  -0.00349
  78        3S         -0.01923  -0.00066   0.00354  -0.01045  -0.00184
  79        4PX         0.01894  -0.00025   0.00364  -0.02045   0.00410
  80        4PY        -0.01233  -0.00083   0.00863  -0.00964  -0.00153
  81        4PZ        -0.00254   0.00567  -0.00010  -0.00051   0.00450
  82        5PX        -0.00921   0.00033  -0.00026   0.01078  -0.00232
  83        5PY         0.00196   0.00056  -0.00150   0.00399   0.00054
  84        5PZ         0.00055   0.00020  -0.00004   0.00009   0.00130
  85 6   O  1S          0.00102  -0.00034   0.00107  -0.01337   0.00054
  86        2S         -0.00149   0.00089  -0.00227   0.02950  -0.00111
  87        3S         -0.00381   0.00015  -0.00406   0.02085  -0.00128
  88        4PX        -0.00237  -0.00060   0.00517  -0.00697   0.00008
  89        4PY         0.00232  -0.00082   0.00035  -0.01890   0.00073
  90        4PZ         0.00008   0.00445  -0.00018  -0.00180  -0.00033
  91        5PX         0.00280   0.00038  -0.00263   0.00241   0.00074
  92        5PY         0.00060   0.00054   0.00079   0.00535  -0.00024
  93        5PZ        -0.00004   0.00079  -0.00018   0.00032   0.00006
  94 7   O  1S          0.00790  -0.00058  -0.01075   0.00493  -0.00033
  95        2S         -0.01783   0.00136   0.02377  -0.01204   0.00058
  96        3S         -0.00964   0.00063   0.01688  -0.00385   0.00128
  97        4PX         0.00885  -0.00098  -0.01130   0.01189  -0.00049
  98        4PY        -0.00969   0.00064   0.01238  -0.00098   0.00017
  99        4PZ         0.00025   0.00645  -0.00095   0.00013  -0.00061
 100        5PX        -0.00243   0.00042   0.00117  -0.00693   0.00041
 101        5PY         0.00304  -0.00032  -0.00298   0.00018   0.00066
 102        5PZ         0.00006   0.00010   0.00010  -0.00003   0.00041
 103 8   O  1S         -0.00116  -0.00016   0.00107   0.00706  -0.00040
 104        2S          0.00218   0.00033  -0.00204  -0.01623   0.00086
 105        3S          0.00193   0.00046  -0.00176  -0.00397   0.00054
 106        4PX        -0.00034  -0.00021  -0.00019   0.00709  -0.00045
 107        4PY         0.00214   0.00026  -0.00238  -0.00958   0.00052
 108        4PZ        -0.00013   0.00035   0.00009   0.00089  -0.00010
 109        5PX        -0.00082   0.00006   0.00079  -0.00255   0.00016
 110        5PY        -0.00046  -0.00017   0.00048   0.00206  -0.00011
 111        5PZ        -0.00020  -0.00019   0.00028  -0.00079   0.00012
 112 9   O  1S         -0.03142  -0.00054  -0.00315   0.00709   0.00020
 113        2S          0.06891   0.00115   0.00553  -0.01521  -0.00076
 114        3S          0.03193   0.00028   0.00532  -0.01029   0.00114
 115        4PX         0.03568   0.00111   0.01041  -0.00425  -0.00006
 116        4PY        -0.03749  -0.00000   0.00304   0.01213   0.00156
 117        4PZ         0.00347   0.00103  -0.00060  -0.00067   0.01213
 118        5PX        -0.00621   0.00016   0.00323   0.00139   0.00015
 119        5PY         0.00560  -0.00025  -0.00221  -0.00321  -0.00049
 120        5PZ        -0.00032  -0.00010   0.00029  -0.00080  -0.00168
                          16        17        18        19        20
                           O         O         O         O         O
     Eigenvalues --    -1.59991  -1.59460  -1.59126  -0.98720  -0.95241
   1 1   Ti 1S          0.00336  -0.00761   0.00071   0.01087   0.05309
   2        2S         -0.02330   0.01628  -0.00134  -0.02986  -0.07437
   3        3S         -0.00530   0.00137  -0.00103  -0.06913   0.04315
   4        4PX         0.66644   0.65109   0.02213   0.03702   0.07538
   5        4PY        -0.65692   0.71428   0.08767   0.03540   0.11161
   6        4PZ         0.04522  -0.07798   0.99475  -0.00285  -0.00769
   7        5PX        -0.00025   0.00103   0.00066   0.04469  -0.03560
   8        5PY        -0.00370   0.00970   0.00150   0.00506  -0.01169
   9        5PZ        -0.00075  -0.00052  -0.00040  -0.00055   0.00161
  10        6PX        -0.00060   0.00037   0.00013  -0.00157   0.00422
  11        6PY         0.00336  -0.00334  -0.00046   0.00045   0.00113
  12        6PZ         0.00044   0.00017   0.00242  -0.00004  -0.00051
  13        7D 0       -0.00684   0.00577   0.00130  -0.01288  -0.03365
  14        7D+1        0.00185   0.00083  -0.00005  -0.00101  -0.00199
  15        7D-1       -0.00223   0.00158  -0.00645  -0.00088  -0.00304
  16        7D+2       -0.00744   0.00524   0.00065   0.00114  -0.00543
  17        7D-2       -0.01272  -0.00582  -0.00082   0.00940   0.02695
  18        8D 0        0.00303   0.00233  -0.00026  -0.00055  -0.01346
  19        8D+1        0.00041   0.00038   0.00133   0.00023  -0.00030
  20        8D-1        0.00002   0.00008  -0.00116   0.00038  -0.00005
  21        8D+2        0.00500   0.00456   0.00002  -0.00791   0.00373
  22        8D-2        0.00533  -0.00410  -0.00149  -0.01203  -0.01257
  23 2   Ti 1S         -0.00188  -0.00164   0.00021   0.06376   0.03754
  24        2S          0.00472   0.00643  -0.00007  -0.08875  -0.04579
  25        3S         -0.00111   0.00241   0.00127   0.04339   0.02163
  26        4PX         0.19094   0.21513   0.00099   0.06492  -0.17014
  27        4PY         0.17939  -0.01419  -0.00945  -0.02396   0.06826
  28        4PZ        -0.00476  -0.00309  -0.03092   0.00204  -0.00416
  29        5PX        -0.00011   0.00039   0.00083   0.04705  -0.08744
  30        5PY         0.00509  -0.00873  -0.00150   0.01707  -0.03282
  31        5PZ         0.00108   0.00056   0.00166  -0.00075   0.00129
  32        6PX         0.00333   0.00039  -0.00011   0.01006  -0.02071
  33        6PY        -0.00371   0.00408   0.00065   0.00007   0.00066
  34        6PZ        -0.00072  -0.00035  -0.00222  -0.00051   0.00095
  35        7D 0        0.00153   0.00200   0.00002  -0.04120  -0.02287
  36        7D+1        0.00005   0.00001   0.00092   0.00244   0.00078
  37        7D-1       -0.00004  -0.00004   0.00008  -0.00062  -0.00097
  38        7D+2       -0.00139  -0.00314  -0.00019   0.02719   0.01805
  39        7D-2       -0.00229  -0.00057   0.00012  -0.04761  -0.04673
  40        8D 0       -0.00182  -0.00147  -0.00025  -0.01800  -0.01094
  41        8D+1        0.00072   0.00002   0.00217   0.00062   0.00046
  42        8D-1        0.00079  -0.00039   0.00011  -0.00118  -0.00013
  43        8D+2       -0.00819  -0.00385   0.00227   0.01030   0.00532
  44        8D-2       -0.00026  -0.01113  -0.00141  -0.01731  -0.00044
  45 3   Ti 1S          0.00089   0.00127   0.00014   0.06210  -0.05333
  46        2S          0.00155   0.00135   0.00002  -0.09801   0.06442
  47        3S          0.00549   0.00079  -0.00027  -0.00966  -0.07324
  48        4PX         0.10083   0.07809  -0.00012  -0.08114  -0.01274
  49        4PY         0.02196   0.03045   0.00083  -0.14842   0.08426
  50        4PZ        -0.01150  -0.00430   0.00184   0.01223  -0.00983
  51        5PX         0.00357   0.00149  -0.00015   0.00422  -0.05917
  52        5PY        -0.00105   0.00024  -0.00001   0.00304  -0.00823
  53        5PZ        -0.00017  -0.00025   0.00012  -0.00134   0.00239
  54        6PX        -0.00067  -0.00078  -0.00003  -0.00271   0.00518
  55        6PY         0.00172  -0.00095  -0.00015  -0.00045  -0.00128
  56        6PZ         0.00020   0.00016   0.00055   0.00059  -0.00055
  57        7D 0        0.00055   0.00041  -0.00004  -0.04352   0.03121
  58        7D+1       -0.00016  -0.00009  -0.00006  -0.00219  -0.00093
  59        7D-1       -0.00007  -0.00007   0.00001  -0.00491   0.00357
  60        7D+2       -0.00107  -0.00110  -0.00005  -0.00895   0.00603
  61        7D-2        0.00170   0.00097  -0.00002   0.02307   0.02889
  62        8D 0       -0.00132  -0.00131  -0.00013  -0.01360   0.01438
  63        8D+1       -0.00004  -0.00018   0.00035   0.00004   0.00060
  64        8D-1        0.00019   0.00012   0.00002   0.00015   0.00008
  65        8D+2        0.00062  -0.00011  -0.00010   0.00131  -0.01102
  66        8D-2       -0.00111  -0.00093  -0.00022  -0.02330   0.00958
  67 4   O  1S         -0.00060   0.00152   0.00008  -0.21930   0.05731
  68        2S          0.00193  -0.00230  -0.00002   0.46713  -0.11680
  69        3S         -0.00053  -0.00694  -0.00094   0.46037  -0.13643
  70        4PX        -0.00206  -0.00515  -0.00019   0.00319   0.01837
  71        4PY        -0.00035   0.00162   0.00001  -0.08223   0.01212
  72        4PZ         0.00002  -0.00007  -0.00016   0.00398  -0.00039
  73        5PX         0.00008  -0.00032   0.00018  -0.00296  -0.00556
  74        5PY        -0.00147  -0.00058   0.00064  -0.05001   0.01841
  75        5PZ        -0.00016  -0.00007   0.00028   0.00255  -0.00075
  76 5   O  1S          0.00293   0.00124  -0.00012  -0.02959   0.03934
  77        2S         -0.00630  -0.00317   0.00019   0.06571  -0.08336
  78        3S         -0.00589   0.00007   0.00057   0.04033  -0.08110
  79        4PX        -0.00566  -0.00263   0.00011  -0.00591   0.01132
  80        4PY        -0.00481  -0.00272   0.00017   0.01480  -0.01759
  81        4PZ        -0.00040  -0.00015  -0.00017   0.00145  -0.00217
  82        5PX         0.00091   0.00170   0.00068   0.01032  -0.00612
  83        5PY         0.00264   0.00337  -0.00017   0.00533  -0.00753
  84        5PZ         0.00021   0.00003   0.00021  -0.00192   0.00029
  85 6   O  1S          0.01163   0.00038  -0.00171  -0.01287  -0.01795
  86        2S         -0.02530  -0.00130   0.00396   0.02947   0.03971
  87        3S         -0.01516   0.00331   0.00193   0.01390   0.02266
  88        4PX        -0.02521  -0.00106   0.00347  -0.00000   0.00538
  89        4PY         0.01151   0.00308  -0.00192  -0.00640  -0.00827
  90        4PZ         0.00229  -0.00031   0.00478  -0.00058  -0.00068
  91        5PX         0.01067   0.00146  -0.00194  -0.00362  -0.00590
  92        5PY         0.00041   0.00098   0.00057  -0.00265  -0.00151
  93        5PZ        -0.00045   0.00013   0.00120   0.00085   0.00132
  94 7   O  1S         -0.00190   0.01183   0.00056  -0.07857  -0.21458
  95        2S          0.00400  -0.02720  -0.00112   0.17068   0.45044
  96        3S          0.00305  -0.01570  -0.00151   0.14752   0.46854
  97        4PX         0.00284  -0.02169  -0.00089  -0.01554  -0.01038
  98        4PY         0.00076  -0.01857  -0.00063   0.03612   0.08100
  99        4PZ         0.00006   0.00081   0.00502  -0.00135  -0.00331
 100        5PX         0.00664   0.01323   0.00037   0.00591  -0.00781
 101        5PY        -0.00022   0.00474  -0.00004   0.01461   0.05316
 102        5PZ         0.00012  -0.00030   0.00013  -0.00081  -0.00217
 103 8   O  1S         -0.03047   0.00434  -0.00012  -0.00708  -0.03054
 104        2S          0.06657  -0.00884   0.00053   0.01870   0.06732
 105        3S          0.03082  -0.00434  -0.00100   0.00042   0.04763
 106        4PX        -0.03221   0.01241   0.00010  -0.00387  -0.01309
 107        4PY         0.03911   0.00181   0.00126   0.00144   0.00384
 108        4PZ        -0.00280  -0.00034   0.01148  -0.00030  -0.00061
 109        5PX         0.00597   0.00121   0.00007   0.00060  -0.00843
 110        5PY        -0.00693  -0.00202  -0.00043  -0.00304  -0.00114
 111        5PZ         0.00007  -0.00007  -0.00160   0.00092   0.00084
 112 9   O  1S          0.00175   0.00100  -0.00002  -0.04933   0.08057
 113        2S         -0.00384  -0.00213   0.00006   0.11126  -0.17497
 114        3S         -0.00227  -0.00186  -0.00014   0.07509  -0.15769
 115        4PX        -0.00110  -0.00046   0.00001   0.02169  -0.02382
 116        4PY         0.00286   0.00188  -0.00001  -0.00751   0.02138
 117        4PZ        -0.00035  -0.00016   0.00002   0.00136  -0.00241
 118        5PX         0.00060   0.00053   0.00007   0.00941  -0.01199
 119        5PY        -0.00023  -0.00030  -0.00002   0.00325   0.00544
 120        5PZ        -0.00010  -0.00014   0.00006  -0.00160   0.00013
                          21        22        23        24        25
                           O         O         O         O         O
     Eigenvalues --    -0.94768  -0.92305  -0.90649  -0.87672  -0.48046
   1 1   Ti 1S          0.02450   0.06433  -0.04434   0.04134  -0.00980
   2        2S         -0.04251  -0.08277   0.05616  -0.05052   0.00609
   3        3S         -0.04264   0.02115  -0.02175   0.01953  -0.07250
   4        4PX         0.03473   0.00968   0.02315  -0.20826  -0.00361
   5        4PY         0.02534  -0.01149  -0.03882   0.19587  -0.02302
   6        4PZ        -0.00516  -0.01317   0.00794  -0.00511   0.00131
   7        5PX         0.02462  -0.02858   0.02246  -0.00728   0.05696
   8        5PY         0.00941   0.00381   0.00619  -0.02227   0.01721
   9        5PZ         0.00019   0.00228  -0.00169   0.00192  -0.00125
  10        6PX        -0.00210   0.00583  -0.00225   0.00299  -0.00446
  11        6PY         0.00091  -0.00399  -0.00004  -0.00223  -0.00154
  12        6PZ        -0.00022  -0.00071   0.00061  -0.00017  -0.00030
  13        7D 0       -0.02009  -0.04239   0.02928  -0.03027   0.00556
  14        7D+1       -0.00151  -0.00205  -0.00039   0.01064   0.00104
  15        7D-1       -0.00048   0.00099   0.00140  -0.01005   0.00323
  16        7D+2        0.00265   0.01078   0.00084  -0.02602   0.06119
  17        7D-2       -0.01075  -0.09589   0.05343  -0.05991  -0.02740
  18        8D 0       -0.00548  -0.01385   0.01230  -0.00450   0.00258
  19        8D+1       -0.00005  -0.00136   0.00112   0.00059  -0.00046
  20        8D-1        0.00042   0.00165  -0.00104  -0.00194   0.00149
  21        8D+2       -0.00231   0.00428  -0.00092   0.00086  -0.00439
  22        8D-2       -0.01851  -0.01679   0.00984  -0.00549  -0.01322
  23 2   Ti 1S          0.03570   0.03791   0.03624  -0.02733   0.13243
  24        2S         -0.05036  -0.04641  -0.03762   0.02657  -0.09658
  25        3S          0.02388   0.01988   0.01512  -0.01084   0.05362
  26        4PX        -0.02933  -0.00237   0.09752   0.07300   0.05872
  27        4PY         0.08977  -0.07868   0.10324   0.05794  -0.03657
  28        4PZ         0.00123  -0.00219   0.00674   0.00473   0.00082
  29        5PX         0.03335  -0.06878   0.01845  -0.04251   0.00205
  30        5PY        -0.00777  -0.00132  -0.00721  -0.01400   0.00755
  31        5PZ         0.00013   0.00020  -0.00155  -0.00135  -0.00006
  32        6PX         0.00653  -0.01486   0.00713  -0.00620   0.01809
  33        6PY        -0.00278   0.00397   0.00170   0.00506   0.00107
  34        6PZ        -0.00037   0.00085  -0.00054   0.00009   0.00008
  35        7D 0       -0.02361  -0.02288  -0.01991   0.01497  -0.12184
  36        7D+1        0.00239   0.00298   0.00222  -0.00164   0.00459
  37        7D-1        0.00312   0.00371   0.00207  -0.00158  -0.00643
  38        7D+2       -0.00655  -0.01044  -0.00168   0.00198   0.09994
  39        7D-2        0.05008   0.06147   0.02389  -0.01610  -0.18398
  40        8D 0       -0.00992  -0.01364  -0.01345   0.01140  -0.03266
  41        8D+1       -0.00003   0.00055   0.00092  -0.00083  -0.00026
  42        8D-1       -0.00021   0.00121   0.00190  -0.00177   0.00003
  43        8D+2        0.01045   0.00562  -0.00058   0.00237   0.08218
  44        8D-2       -0.01200  -0.00751   0.00062  -0.00282   0.01660
  45 3   Ti 1S          0.06337  -0.02429  -0.00416   0.00293  -0.00886
  46        2S         -0.08961   0.02492   0.00714  -0.00618   0.00923
  47        3S         -0.01262  -0.05469   0.01255  -0.01650  -0.02185
  48        4PX         0.06473  -0.10364  -0.18875  -0.03089   0.00594
  49        4PY        -0.03057   0.08332   0.15804   0.02120   0.06970
  50        4PZ         0.01556  -0.00464  -0.00115   0.00076  -0.00327
  51        5PX         0.00495  -0.03783   0.01489  -0.00882  -0.04401
  52        5PY        -0.00313  -0.01760  -0.01393  -0.00349  -0.01136
  53        5PZ        -0.00200   0.00155   0.00056   0.00011   0.00100
  54        6PX        -0.00447   0.00493  -0.00033   0.00235   0.00037
  55        6PY         0.00347  -0.00188  -0.00004  -0.00217   0.00092
  56        6PZ         0.00063  -0.00025   0.00018   0.00024   0.00000
  57        7D 0       -0.04587   0.01380   0.00533  -0.00302   0.01225
  58        7D+1        0.00238  -0.00540  -0.01062  -0.00196   0.00321
  59        7D-1       -0.00227   0.00467   0.00910   0.00136   0.01567
  60        7D+2        0.01069   0.01095   0.02645   0.00408   0.20911
  61        7D-2       -0.11787   0.03694   0.01645  -0.00193  -0.06428
  62        8D 0       -0.01118   0.00431  -0.00261  -0.00331  -0.00768
  63        8D+1       -0.00100   0.00030  -0.00104  -0.00047  -0.00034
  64        8D-1        0.00116   0.00054   0.00223   0.00080   0.00210
  65        8D+2       -0.00066  -0.00278   0.00142  -0.00297   0.02528
  66        8D-2       -0.01731  -0.00626  -0.00125  -0.00500  -0.01284
  67 4   O  1S          0.08621  -0.02162  -0.01068  -0.00598   0.01286
  68        2S         -0.18053   0.04704   0.02338   0.01197  -0.03006
  69        3S         -0.20851   0.04158   0.02013   0.01814  -0.03866
  70        4PX        -0.00621   0.00572   0.01304  -0.00081   0.48692
  71        4PY         0.03393  -0.01035  -0.01262  -0.00345  -0.18235
  72        4PZ        -0.00232   0.00064   0.00035  -0.00003   0.01273
  73        5PX        -0.00792  -0.00176  -0.00146   0.00183   0.22690
  74        5PY         0.02350  -0.00625  -0.00517  -0.00169  -0.06373
  75        5PZ        -0.00168   0.00017  -0.00054   0.00027   0.00511
  76 5   O  1S         -0.14755  -0.04502  -0.17473  -0.03719   0.01316
  77        2S          0.31226   0.09531   0.36058   0.07530  -0.02520
  78        3S          0.30420   0.09409   0.39198   0.09028  -0.06605
  79        4PX        -0.02031   0.01269  -0.00006  -0.00683  -0.04581
  80        4PY         0.06178   0.02094   0.05958   0.00858   0.07555
  81        4PZ         0.00694   0.00047   0.00342   0.00070   0.00466
  82        5PX         0.00587  -0.00562  -0.01144   0.00441  -0.00527
  83        5PY         0.03088   0.00925   0.04729   0.01225   0.02157
  84        5PZ         0.00158   0.00099   0.00477   0.00061   0.00105
  85 6   O  1S         -0.05273  -0.18292   0.06862   0.12960   0.00473
  86        2S          0.11437   0.38510  -0.14257  -0.26547  -0.00782
  87        3S          0.09866   0.38316  -0.14952  -0.29948  -0.03425
  88        4PX         0.00094   0.01705  -0.01864   0.01096   0.00984
  89        4PY        -0.02588  -0.07108   0.02128   0.03790  -0.01435
  90        4PZ        -0.00230  -0.00703   0.00287   0.00087  -0.00190
  91        5PX        -0.00476  -0.00148   0.00934  -0.01320  -0.01275
  92        5PY        -0.00717  -0.03901   0.01808   0.03591   0.00653
  93        5PZ         0.00050  -0.00272   0.00063   0.00416  -0.00028
  94 7   O  1S         -0.05476   0.05751  -0.00511   0.01706   0.01988
  95        2S          0.11577  -0.11965   0.01188  -0.03656  -0.03749
  96        3S          0.11134  -0.14327   0.00739  -0.03764  -0.07398
  97        4PX         0.00072   0.00696  -0.00671   0.01397  -0.19576
  98        4PY         0.01840  -0.02217   0.00312  -0.01519   0.10484
  99        4PZ        -0.00071   0.00140  -0.00045   0.00042  -0.00185
 100        5PX         0.00055   0.00519   0.00129  -0.00060  -0.08291
 101        5PY         0.01363  -0.01444   0.00123  -0.00681   0.01766
 102        5PZ        -0.00060   0.00129  -0.00004  -0.00030   0.00015
 103 8   O  1S         -0.02428  -0.09574   0.08224  -0.20426  -0.00571
 104        2S          0.05562   0.20977  -0.17904   0.43688   0.01580
 105        3S          0.03226   0.17605  -0.15786   0.43774   0.00844
 106        4PX        -0.00850  -0.02575   0.02041  -0.03742   0.05168
 107        4PY         0.00885   0.03948  -0.02658   0.04519   0.03723
 108        4PZ        -0.00106  -0.00409   0.00256  -0.00236  -0.00142
 109        5PX        -0.00305  -0.00401   0.00510  -0.01862   0.02511
 110        5PY        -0.00333   0.00556  -0.00750   0.02447   0.01325
 111        5PZ         0.00110   0.00140  -0.00096  -0.00221   0.00094
 112 9   O  1S         -0.15156   0.09919   0.13311   0.01519  -0.01420
 113        2S          0.33332  -0.21343  -0.28618  -0.03122   0.03681
 114        3S          0.29182  -0.21418  -0.29306  -0.04055   0.03093
 115        4PX         0.03849  -0.02132  -0.02412  -0.00140  -0.23390
 116        4PY        -0.05420   0.02345   0.02216   0.00132  -0.16385
 117        4PZ         0.00600  -0.00186  -0.00068   0.00032   0.00565
 118        5PX         0.00772  -0.00854  -0.01457  -0.00219  -0.09491
 119        5PY        -0.01339   0.01486   0.01724   0.00268  -0.05935
 120        5PZ        -0.00074  -0.00136  -0.00264  -0.00112   0.00015
                          26        27        28        29        30
                           O         O         O         O         O
     Eigenvalues --    -0.43166  -0.42748  -0.42440  -0.40536  -0.40396
   1 1   Ti 1S         -0.06217   0.01991  -0.06045   0.00520   0.02460
   2        2S          0.05764  -0.01777   0.05084  -0.00338  -0.01982
   3        3S          0.10693  -0.00304   0.05061  -0.00940  -0.02447
   4        4PX        -0.06763   0.02373  -0.03753  -0.01250  -0.03635
   5        4PY        -0.03866   0.07113   0.01984  -0.00553  -0.02398
   6        4PZ         0.00378  -0.00224   0.00313   0.02194  -0.00842
   7        5PX        -0.03970  -0.02505  -0.00645  -0.00747  -0.03668
   8        5PY        -0.00713  -0.01143  -0.03114   0.00728   0.02218
   9        5PZ         0.00087   0.00191   0.00041  -0.00962   0.00027
  10        6PX        -0.00415  -0.00132  -0.00512  -0.00203  -0.00477
  11        6PY        -0.00318  -0.00044   0.00600   0.00233   0.00649
  12        6PZ         0.00084  -0.00023  -0.00027   0.00371  -0.00212
  13        7D 0        0.06866  -0.01964   0.07115  -0.01813  -0.04975
  14        7D+1        0.01396  -0.00227   0.01200   0.04248  -0.01912
  15        7D-1        0.00568  -0.01538  -0.01029   0.04555   0.00150
  16        7D+2       -0.03946  -0.18787  -0.06614  -0.05084  -0.15341
  17        7D-2       -0.08819   0.13257   0.06302  -0.06841  -0.25218
  18        8D 0        0.01031   0.00023   0.01314   0.00036   0.00726
  19        8D+1        0.00160  -0.00057   0.00280   0.00480  -0.00231
  20        8D-1       -0.00018  -0.00116  -0.00368   0.00884   0.00025
  21        8D+2       -0.01047  -0.03098  -0.02310  -0.01379  -0.03303
  22        8D-2        0.01275   0.00743   0.02178  -0.00303  -0.00352
  23 2   Ti 1S         -0.04961  -0.08524   0.05920  -0.02836  -0.09492
  24        2S          0.03716   0.06046  -0.03669   0.01939   0.06356
  25        3S         -0.06613  -0.02634  -0.02107  -0.00729  -0.03585
  26        4PX        -0.03327   0.10200   0.06958   0.03096   0.09328
  27        4PY        -0.00818  -0.11175   0.01172   0.01495   0.04584
  28        4PZ        -0.00191  -0.00080   0.00531  -0.01733   0.01281
  29        5PX        -0.02722   0.01507  -0.04775   0.00329   0.00674
  30        5PY         0.00271   0.03530  -0.02126  -0.01237  -0.03940
  31        5PZ         0.00036   0.00015  -0.00022   0.00762  -0.00470
  32        6PX        -0.01325   0.02289   0.01194   0.01215   0.03157
  33        6PY         0.00162   0.00271  -0.00664  -0.00309  -0.00556
  34        6PZ        -0.00022  -0.00010   0.00160  -0.00254   0.00296
  35        7D 0        0.04253   0.09280  -0.05365   0.02250   0.10157
  36        7D+1       -0.01047  -0.00767   0.01453  -0.19688   0.06026
  37        7D-1       -0.01216  -0.00243   0.02147   0.08484  -0.04033
  38        7D+2       -0.19338  -0.00948  -0.18518  -0.00050   0.01781
  39        7D-2       -0.21170   0.08748   0.15646  -0.04062  -0.12971
  40        8D 0        0.02216   0.01673  -0.00877   0.00472   0.02484
  41        8D+1       -0.00474  -0.00080   0.00140  -0.06771   0.02335
  42        8D-1        0.00020  -0.00122   0.00327   0.01973  -0.00625
  43        8D+2       -0.11553  -0.02821  -0.03569  -0.00758  -0.04114
  44        8D-2       -0.01450  -0.02027   0.03522  -0.00870  -0.01932
  45 3   Ti 1S         -0.08066   0.03230  -0.11496   0.01341   0.03122
  46        2S          0.07010  -0.02222   0.09676  -0.00678  -0.01989
  47        3S          0.05971   0.04260   0.06979   0.02456   0.06692
  48        4PX         0.09906   0.02091   0.01893  -0.02110  -0.04140
  49        4PY         0.05295   0.03922   0.02258  -0.00770   0.00056
  50        4PZ        -0.00597  -0.00085  -0.00313  -0.07244   0.02751
  51        5PX         0.01736   0.04861  -0.05214   0.00832   0.03621
  52        5PY         0.00279  -0.00354   0.03913  -0.00079  -0.00519
  53        5PZ         0.00140   0.00217  -0.00516   0.04216  -0.01825
  54        6PX         0.00936  -0.00720   0.00775  -0.00249  -0.00616
  55        6PY        -0.00042  -0.00277   0.00560   0.00365   0.00773
  56        6PZ        -0.00081  -0.00030  -0.00099  -0.00797   0.00204
  57        7D 0        0.08429  -0.04129   0.16215  -0.03329  -0.01269
  58        7D+1        0.02317  -0.00008   0.01454   0.04602  -0.03653
  59        7D-1        0.01111   0.01763  -0.01060   0.18515  -0.05521
  60        7D+2       -0.08604   0.10458   0.08473  -0.00112   0.02648
  61        7D-2       -0.19899  -0.18121   0.23639   0.07767   0.12324
  62        8D 0        0.01828  -0.00944   0.01072  -0.01272  -0.01139
  63        8D+1        0.00320  -0.00002   0.00367   0.01101  -0.00844
  64        8D-1        0.00039   0.00194  -0.00538   0.03942  -0.00986
  65        8D+2       -0.03133   0.03379   0.00090   0.00532   0.02156
  66        8D-2        0.00945  -0.00037   0.01863  -0.00471  -0.00186
  67 4   O  1S         -0.02504  -0.01924  -0.00606   0.00569   0.01012
  68        2S          0.05995   0.03919   0.01096  -0.01525  -0.02856
  69        3S          0.07358   0.05931   0.03112  -0.00482   0.00036
  70        4PX         0.20734   0.16164   0.07910  -0.02588  -0.02782
  71        4PY         0.39072   0.09750   0.03042  -0.09529  -0.25967
  72        4PZ        -0.00001   0.00636  -0.01199   0.52196  -0.17388
  73        5PX         0.09376   0.08799   0.05306  -0.01480  -0.02144
  74        5PY         0.16811   0.02966   0.00753  -0.04824  -0.13496
  75        5PZ        -0.00071   0.00385  -0.00570   0.24908  -0.08338
  76 5   O  1S         -0.01904   0.01074  -0.00573  -0.00520  -0.01151
  77        2S          0.04141  -0.02209   0.01147   0.01082   0.01941
  78        3S          0.07068  -0.02270   0.01525   0.01168   0.03655
  79        4PX        -0.04733  -0.18003   0.38921   0.00208  -0.03652
  80        4PY        -0.22135   0.08100   0.02424  -0.04626  -0.08284
  81        4PZ         0.00541   0.01472  -0.02049   0.03653  -0.04076
  82        5PX        -0.04182  -0.09041   0.16736   0.00595  -0.01825
  83        5PY        -0.09471   0.03635   0.01601  -0.01587  -0.01496
  84        5PZ         0.00390   0.00675  -0.01033   0.01728  -0.01821
  85 6   O  1S         -0.01620  -0.01249  -0.00065  -0.00450  -0.00970
  86        2S          0.03238   0.02370   0.00284   0.01050   0.02356
  87        3S          0.06124   0.05112   0.00557   0.01791   0.04024
  88        4PX        -0.00292  -0.06175  -0.20390   0.08611   0.32116
  89        4PY         0.16160   0.10331   0.02098   0.05948   0.14514
  90        4PZ         0.00067   0.00743   0.00414  -0.03072   0.00406
  91        5PX         0.01706  -0.03054  -0.08099   0.04075   0.16312
  92        5PY         0.06049   0.03626   0.01832   0.03017   0.07506
  93        5PZ        -0.00099   0.00274   0.00180  -0.00969  -0.00083
  94 7   O  1S         -0.01283  -0.00413  -0.01009  -0.00514  -0.01663
  95        2S          0.02962   0.01279   0.02285   0.01320   0.04243
  96        3S          0.04853   0.00360   0.02584   0.01079   0.03713
  97        4PX        -0.20936   0.46058   0.08393   0.00090  -0.00026
  98        4PY        -0.19621  -0.06240  -0.19978  -0.09422  -0.26814
  99        4PZ        -0.00127   0.00370   0.00188  -0.21173   0.07256
 100        5PX        -0.09200   0.23249   0.02829   0.00009   0.00457
 101        5PY        -0.07684  -0.02349  -0.08977  -0.04569  -0.12809
 102        5PZ         0.00046   0.00178   0.00058  -0.09193   0.03175
 103 8   O  1S         -0.00293   0.00605  -0.00692   0.00691   0.02468
 104        2S          0.00259  -0.01643   0.00739  -0.01429  -0.05158
 105        3S          0.02869  -0.01593   0.04671  -0.02343  -0.07885
 106        4PX         0.00934  -0.16551  -0.01677  -0.06677  -0.23307
 107        4PY         0.01378  -0.16087  -0.10119   0.02290   0.09568
 108        4PZ         0.00136   0.01040   0.01806  -0.03312  -0.02922
 109        5PX         0.00328  -0.07077  -0.01631  -0.02581  -0.09052
 110        5PY         0.01619  -0.06136  -0.02602   0.00813   0.03197
 111        5PZ        -0.00157   0.00405   0.00469  -0.01702  -0.01219
 112 9   O  1S          0.00539   0.01209  -0.03215  -0.00503  -0.00746
 113        2S         -0.01550  -0.02490   0.06216   0.01195   0.01762
 114        3S          0.00530  -0.03991   0.12492   0.00907   0.01499
 115        4PX         0.07876  -0.05080  -0.30873  -0.06534  -0.10886
 116        4PY        -0.04013  -0.22153   0.16993   0.04651   0.02930
 117        4PZ         0.00815   0.03390  -0.06951   0.20895  -0.07095
 118        5PX         0.03241  -0.02210  -0.11275  -0.02809  -0.04912
 119        5PY        -0.02490  -0.08009   0.04481   0.01901   0.01037
 120        5PZ         0.00634   0.01443  -0.02667   0.09875  -0.03564
                          31        32        33        34        35
                           O         O         O         O         O
     Eigenvalues --    -0.38902  -0.38079  -0.37557  -0.37352  -0.36271
   1 1   Ti 1S          0.00191   0.14704   0.06641   0.00005  -0.00338
   2        2S          0.00085  -0.10780  -0.05412   0.00345   0.00286
   3        3S          0.04529   0.10360  -0.03237   0.07932  -0.00264
   4        4PX         0.00915   0.06382  -0.00986   0.03447   0.00306
[...]
   8         O                -2.491270          1.341674
   9         O                -2.474176          1.341395
  10         O                -1.633583          2.312300
  11         O                -1.621536          2.339050
  12         O                -1.613524          2.396913
  13         O                -1.612053          2.386027
  14         O                -1.611922          2.374804
  15         O                -1.605458          2.397122
  16         O                -1.599910          2.351744
  17         O                -1.594602          2.393119
  18         O                -1.591259          2.396678
  19         O                -0.987200          2.988988
  20         O                -0.952413          3.064927
  21         O                -0.947675          3.054242
  22         O                -0.923050          3.028294
  23         O                -0.906495          3.161267
  24         O                -0.876717          3.205598
  25         O                -0.480455          2.365108
  26         O                -0.431661          2.398621
  27         O                -0.427483          2.410400
  28         O                -0.424401          2.518431
  29         O                -0.405357          2.231772
  30         O                -0.403962          2.445672
  31         O                -0.389018          2.341025
  32         O                -0.380792          2.478241
  33         O                -0.375573          2.443169
  34         O                -0.373519          2.427737
  35         O                -0.362707          2.299115
  36         O                -0.344725          2.678912
  37         O                -0.336442          2.335376
  38         O                -0.320559          2.534270
  39         O                -0.317604          2.602558
  40         O                -0.305774          2.298211
  41         O                -0.298623          2.657051
  42         O                -0.292725          2.579969
  43         V                -0.139798          2.930326
  44         V                -0.131728          3.776476
  45         V                -0.122243          3.368153
  46         V                -0.116659          3.770359
  47         V                -0.115463          3.616187
  48         V                -0.112561          3.668349
  49         V                -0.097938          3.836896
  50         V                -0.087251          3.787808
  51         V                -0.067490          4.055047
  52         V                -0.064865          4.021550
  53         V                -0.049600          4.056388
  54         V                -0.048438          3.925493
  55         V                -0.034560          1.958888
  56         V                -0.030222          1.894401
  57         V                 0.008327          0.216844
  58         V                 0.009588          0.224000
  59         V                 0.014168          0.669446
  60         V                 0.017768          0.931464
  61         V                 0.023415          0.367495
  62         V                 0.024243          0.756031
  63         V                 0.035587          3.358050
  64         V                 0.044656          0.182360
  65         V                 0.044894          0.170111
  66         V                 0.049194          0.245586
  67         V                 0.064219          2.640196
  68         V                 0.090613          0.593692
  69         V                 0.101029          1.746048
  70         V                 0.103641          0.564495
  71         V                 0.109469          1.335060
  72         V                 0.128241          0.494753
  73         V                 0.139677          0.735082
  74         V                 0.147523          0.766630
  75         V                 0.149198          0.826507
  76         V                 0.182009          0.947817
  77         V                 0.186736          0.895971
  78         V                 0.228746          1.603835
  79         V                 0.304305          1.424304
  80         V                 0.306305          1.608414
  81         V                 0.321536          1.861375
  82         V                 0.326350          1.573580
  83         V                 0.333091          1.393002
  84         V                 0.340673          1.317177
  85         V                 0.353262          1.303028
  86         V                 0.360318          1.477521
  87         V                 0.389900          1.408705
  88         V                 0.405526          1.466335
  89         V                 0.412857          1.364587
  90         V                 0.449700          1.329339
  91         V                 0.467156          1.781783
  92         V                 0.490286          1.429027
  93         V                 0.521163          1.682634
  94         V                 0.658250          2.262121
  95         V                 0.684195          3.068929
  96         V                 0.714576          2.913781
  97         V                 0.726781          2.818364
  98         V                 0.732602          3.052900
  99         V                 0.754505          2.934084
 100         V                 0.769777          2.801541
 101         V                 0.775717          2.920044
 102         V                 0.797254          2.912064
 103         V                 0.809120          2.946770
 104         V                 0.861341          2.889658
 105         V                 0.864780          2.931335
 106         V                 0.877202          2.819669
 107         V                 0.881465          2.847882
 108         V                 0.959960          2.904936
 109         V                 1.009237          3.171915
 110         V                 1.034316          3.167401
 111         V                 1.050554          3.282966
 112         V                 1.322488          3.579580
 113         V                 1.367056          4.130934
 114         V                 1.499827          4.244106
 115         V                 1.672986          4.261339
 116         V                 1.702352          4.191281
 117         V                 1.906819          4.802542
 118         V                 4.123330          2.860843
 119         V                 9.451776          2.850886
 120         V                15.390801          3.818347
 Orbital energies and kinetic energies (beta):
                                 1                 2
   1         O               -19.188777         29.131732
   2         O               -19.168820         29.128961
   3         O               -19.163345         29.130975
   4         O               -19.141602         29.125899
   5         O               -19.131708         29.126726
   6         O               -19.131060         29.128006
   7         O                -2.503067          1.342386
   8         O                -2.495531          1.341847
   9         O                -2.476239          1.341453
  10         O                -1.637311          2.315638
  11         O                -1.625953          2.341802
  12         O                -1.619446          2.397361
  13         O                -1.616558          2.385104
  14         O                -1.615267          2.378619
  15         O                -1.609656          2.397036
  16         O                -1.602196          2.351429
  17         O                -1.596906          2.393166
  18         O                -1.593087          2.396679
  19         O                -0.959001          2.889547
  20         O                -0.935720          2.997667
  21         O                -0.932076          3.021262
  22         O                -0.914087          3.029300
  23         O                -0.888846          3.200441
  24         O                -0.868588          3.197385
  25         O                -0.434167          2.377909
  26         O                -0.424926          2.411830
  27         O                -0.417583          2.426854
  28         O                -0.407187          2.483726
  29         O                -0.393735          2.175149
  30         O                -0.386594          2.330021
  31         O                -0.383445          2.329187
  32         O                -0.371882          2.451866
  33         O                -0.367379          2.449512
  34         O                -0.365718          2.450379
  35         O                -0.359329          2.300642
  36         O                -0.329984          2.347730
  37         O                -0.309314          2.422979
  38         O                -0.306896          2.614980
  39         O                -0.300932          2.315197
  40         O                -0.289625          2.636617
  41         O                -0.284737          2.583891
  42         V                -0.217142          2.718892
  43         V                -0.142950          2.913903
  44         V                -0.134775          3.780376
  45         V                -0.124472          3.345404
  46         V                -0.118182          3.727179
  47         V                -0.116629          3.676744
  48         V                -0.114251          3.596319
  49         V                -0.096885          3.826595
  50         V                -0.086564          3.751412
  51         V                -0.066906          4.004219
  52         V                -0.060801          3.913853
  53         V                -0.049943          4.016387
  54         V                -0.047724          3.872002
  55         V                -0.030887          1.987157
  56         V                -0.028560          1.928257
  57         V                 0.008738          0.219300
  58         V                 0.010023          0.232150
  59         V                 0.014407          0.662804
  60         V                 0.017896          0.921285
  61         V                 0.023854          0.226107
  62         V                 0.024790          0.649746
  63         V                 0.038274          3.501920
  64         V                 0.044843          0.167721
  65         V                 0.045144          0.184390
  66         V                 0.049800          0.265983
  67         V                 0.065963          2.637525
  68         V                 0.091442          0.608930
  69         V                 0.101517          1.742144
  70         V                 0.104350          0.574985
  71         V                 0.110068          1.305218
  72         V                 0.128645          0.498251
  73         V                 0.141213          0.748863
  74         V                 0.149473          0.774110
  75         V                 0.151524          0.887986
  76         V                 0.183648          0.963366
  77         V                 0.188058          0.899113
  78         V                 0.229519          1.605040
  79         V                 0.305186          1.418024
  80         V                 0.308086          1.595772
  81         V                 0.322491          1.851925
  82         V                 0.326247          1.566953
  83         V                 0.333356          1.386717
  84         V                 0.341876          1.312930
  85         V                 0.354070          1.299508
  86         V                 0.360734          1.475553
  87         V                 0.389718          1.402020
  88         V                 0.407094          1.466390
  89         V                 0.414350          1.360770
  90         V                 0.450834          1.319541
  91         V                 0.468364          1.780779
  92         V                 0.490583          1.425079
  93         V                 0.522595          1.687721
  94         V                 0.665979          2.287331
  95         V                 0.692678          3.122668
  96         V                 0.721831          2.954335
  97         V                 0.730631          2.839913
  98         V                 0.743234          3.085319
  99         V                 0.759706          2.978967
 100         V                 0.775482          2.815183
 101         V                 0.779970          2.955928
 102         V                 0.812042          2.883084
 103         V                 0.819627          3.141738
 104         V                 0.868739          2.945613
 105         V                 0.870873          2.904113
 106         V                 0.882085          2.844618
 107         V                 0.885598          2.894821
 108         V                 0.961857          2.909550
 109         V                 1.022255          3.219986
 110         V                 1.037518          3.199658
 111         V                 1.057316          3.304918
 112         V                 1.329913          3.591926
 113         V                 1.375000          4.154669
 114         V                 1.511416          4.264766
 115         V                 1.676390          4.265437
 116         V                 1.710034          4.210616
 117         V                 1.913077          4.813639
 118         V                 4.127303          2.865670
 119         V                 9.455739          2.851416
 120         V                15.398685          3.818667
 Total kinetic energy from orbitals= 5.222628206483D+02
                          Isotropic Fermi Contact Couplings
        Atom                 a.u.       MegaHertz       Gauss      10(-4) cm-1
     1  Ti(47)             0.00000      -0.00020      -0.00007      -0.00007
     2  Ti(47)             0.00000      -0.00008      -0.00003      -0.00003
     3  Ti(47)             0.00000      -0.00040      -0.00014      -0.00013
     4  O(17)              0.13012     -78.87633     -28.14504     -26.31031
     5  O(17)              0.00337      -2.04022      -0.72800      -0.68054
     6  O(17)              0.00679      -4.11813      -1.46945      -1.37366
     7  O(17)              0.04313     -26.14752      -9.33009      -8.72187
     8  O(17)              0.03364     -20.39512      -7.27749      -6.80308
     9  O(17)              0.10067     -61.02412     -21.77492     -20.35546
 --------------------------------------------------------
       Center         ----  Spin Dipole Couplings  ----
                      3XX-RR        3YY-RR        3ZZ-RR
 --------------------------------------------------------
     1   Atom        0.002638     -0.006116      0.003478
     2   Atom        0.032589      0.021165     -0.053754
     3   Atom        0.003640      0.005126     -0.008766
     4   Atom        1.150518     -0.342441     -0.808078
     5   Atom        0.134213     -0.098457     -0.035756
     6   Atom        0.104000     -0.062407     -0.041592
     7   Atom        0.530328     -0.103978     -0.426350
     8   Atom        0.400520     -0.188225     -0.212296
     9   Atom        1.070490     -0.358765     -0.711725
 --------------------------------------------------------
                        XY            XZ            YZ
 --------------------------------------------------------
     1   Atom        0.005630     -0.005374     -0.003399
     2   Atom        0.030814      0.009655      0.005660
     3   Atom        0.009632     -0.011861     -0.007712
     4   Atom       -1.040805      0.126027     -0.062023
     5   Atom       -0.004624     -0.014215     -0.008070
     6   Atom       -0.048505     -0.018898      0.002490
     7   Atom       -0.597552      0.042022     -0.023632
     8   Atom        0.213900      0.048088      0.022461
     9   Atom        0.931849      0.073307      0.056602
 --------------------------------------------------------


 ---------------------------------------------------------------------------------
              Anisotropic Spin Dipole Couplings in Principal Axis System
 ---------------------------------------------------------------------------------

       Atom             a.u.   MegaHertz   Gauss  10(-4) cm-1        Axes

              Baa    -0.0089     0.269     0.096     0.090 -0.4096  0.9094  0.0717
     1 Ti(47) Bbb    -0.0019     0.058     0.021     0.019  0.6188  0.2192  0.7543
              Bcc     0.0108    -0.327    -0.117    -0.109  0.6703  0.3534 -0.6525
 
              Baa    -0.0549     1.654     0.590     0.552 -0.0976 -0.0345  0.9946
     2 Ti(47) Bbb    -0.0044     0.132     0.047     0.044 -0.6342  0.7724 -0.0355
              Bcc     0.0593    -1.786    -0.637    -0.596  0.7670  0.6343  0.0973
 
              Baa    -0.0161     0.485     0.173     0.162  0.4751  0.1019  0.8740
     3 Ti(47) Bbb    -0.0044     0.134     0.048     0.045 -0.5879  0.7758  0.2291
              Bcc     0.0206    -0.619    -0.221    -0.207  0.6547  0.6226 -0.4285
 
              Baa    -0.8769    63.450    22.641    21.165  0.4583  0.8880 -0.0390
     4 O(17)  Bbb    -0.8159    59.036    21.065    19.692 -0.0320  0.0603  0.9977
              Bcc     1.6927  -122.486   -43.706   -40.857  0.8882 -0.4560  0.0561
 
              Baa    -0.0997     7.211     2.573     2.405  0.0276  0.9910  0.1313
     5 O(17)  Bbb    -0.0358     2.591     0.924     0.864  0.0790 -0.1331  0.9880
              Bcc     0.1355    -9.802    -3.498    -3.270  0.9965 -0.0169 -0.0819
 
              Baa    -0.0757     5.478     1.955     1.827  0.2674  0.9604  0.0780
     6 O(17)  Bbb    -0.0436     3.156     1.126     1.053  0.0919 -0.1060  0.9901
              Bcc     0.1193    -8.634    -3.081    -2.880  0.9592 -0.2576 -0.1166
 
              Baa    -0.4634    33.530    11.964    11.184  0.5162  0.8556 -0.0397
     7 O(17)  Bbb    -0.4281    30.974    11.052    10.332 -0.0108  0.0529  0.9985
              Bcc     0.8914   -64.504   -23.017   -21.516  0.8564 -0.5150  0.0365
 
              Baa    -0.2587    18.721     6.680     6.245 -0.2951  0.9435 -0.1508
     8 O(17)  Bbb    -0.2153    15.582     5.560     5.198 -0.1188  0.1203  0.9856
              Bcc     0.4741   -34.303   -12.240   -11.442  0.9480  0.3088  0.0765
 
              Baa    -0.8216    59.452    21.214    19.831 -0.4301  0.8867 -0.1698
     9 O(17)  Bbb    -0.7122    51.537    18.390    17.191 -0.1109  0.1347  0.9847
              Bcc     1.5339  -110.989   -39.604   -37.022  0.8959  0.4423  0.0404
 

 ---------------------------------------------------------------------------------


 Test job not archived.
 1\1\GINC-POP-OS\SP\UB3LYP\LANL2DZ\O6Ti3(1+,2)\RHEINHEIMER\31-May-2021\
 0\\#t B3LYP/LANL2DZ # SCRF=(Solvent=Water) # Gfinput IOP(6/7=3) Pop=hi
 rshfeld Density Test # Units(Ang,Deg)\\3-tio2.pdb\\1,2\Ti,-1,-1.641,1.
 281,-0.014\Ti,-1,1.10770513,1.41319636,-0.03946004\Ti,-1,3.85641027,1.
 54539273,-0.06492008\O,-1,2.59824652,0.24907049,0.26629683\O,-1,2.4362
 6749,2.63074102,-0.53886675\O,-1,-0.25649358,0.15493477,0.47724339\O,-
 1,-0.28140306,2.5579148,-0.35239315\O,-1,-2.55712953,2.59862657,-0.321
 44578\O,-1,4.77709533,0.23630425,0.21797797\\Version=ES64L-G16RevA.03\
 State=2-A\HF=-625.8011847\S2=0.786915\S2-1=0.\S2A=0.751022\RMSD=4.149e
 -09\Dipole=1.2371519,-0.1818812,0.0596773\Quadrupole=20.7831055,-21.81
 24092,1.0293037,25.5737515,-3.5337457,8.2429068\PG=C01 [X(O6Ti3)]\\@


 I FIND THAT THE THREE TRULY GREAT TIMES FOR THINKING THOUGHTS
 ARE WHEN I AM STANDING IN THE SHOWER, SITTING ON THE JOHN, OR WALKING.

                                    -- COLIN FLETCHER
 Job cpu time:       0 days  0 hours  4 minutes 37.9 seconds.
 Elapsed time:       0 days  0 hours  0 minutes 37.9 seconds.
 File lengths (MBytes):  RWF=     38 Int=      0 D2E=      0 Chk=      3 Scr=      1
 Normal termination of Gaussian 16 at Mon May 31 13:20:23 2021.
