 Entering Gaussian System, Link 0=g16
 Input=w-3-tio2_anion_scf_g09.com
 Output=w-3-tio2_anion_scf_g09.log
 Initial command:
 /home/rheinheimer/Apps//g16/l1.exe "/home/rheinheimer/Apps/scrgauss/Gau-316504.inp" -scrdir="/home/rheinheimer/Apps/scrgauss/"
 Entering Link 1 = /home/rheinheimer/Apps//g16/l1.exe PID=    316506.
  
 Copyright (c) 1988,1990,1992,1993,1995,1998,2003,2009,2016,
            Gaussian, Inc.  All Rights Reserved.
  
 This is part of the Gaussian(R) 16 program.  It is based on
 the Gaussian(R) 09 system (copyright 2009, Gaussian, Inc.),
 the Gaussian(R) 03 system (copyright 2003, Gaussian, Inc.),
 the Gaussian(R) 98 system (copyright 1998, Gaussian, Inc.),
 the Gaussian(R) 94 system (copyright 1995, Gaussian, Inc.),
 the Gaussian 92(TM) system (copyright 1992, Gaussian, Inc.),
 the Gaussian 90(TM) system (copyright 1990, Gaussian, Inc.),
 the Gaussian 88(TM) system (copyright 1988, Gaussian, Inc.),
 the Gaussian 86(TM) system (copyright 1986, Carnegie Mellon
 University), and the Gaussian 82(TM) system (copyright 1983,
 Carnegie Mellon University). Gaussian is a federally registered
 trademark of Gaussian, Inc.
  
 This software contains proprietary and confidential information,
 including trade secrets, belonging to Gaussian, Inc.
  
 This software is provided under written license and may be
 used, copied, transmitted, or stored only in accord with that
 written license.
  
 The following legend is applicable only to US Government
 contracts under FAR:
  
                    RESTRICTED RIGHTS LEGEND
  
 Use, reproduction and disclosure by the US Government is
 subject to restrictions as set forth in subparagraphs (a)
 and (c) of the Commercial Computer Software - Restricted
 Rights clause in FAR 52.227-19.
  
 Gaussian, Inc.
 340 Quinnipiac St., Bldg. 40, Wallingford CT 06492
  
  
 ---------------------------------------------------------------
 Warning -- This program may not be used in any manner that
 competes with the business of Gaussian, Inc. or will provide
 assistance to any competitor of Gaussian, Inc.  The licensee
 of this program is prohibited from giving any competitor of
 Gaussian, Inc. access to this program.  By using this program,
 the user acknowledges that Gaussian, Inc. is engaged in the
 business of creating and licensing software in the field of
 computational chemistry and represents and warrants to the
 licensee that it is not a competitor of Gaussian, Inc. and that
 it will not use this program in any manner prohibited above.
 ---------------------------------------------------------------
  

 Cite this work as:
 Gaussian 16, Revision A.03,
 M. J. Frisch, G. W. Trucks, H. B. Schlegel, G. E. Scuseria, 
 M. A. Robb, J. R. Cheeseman, G. Scalmani, V. Barone, 
 G. A. Petersson, H. Nakatsuji, X. Li, M. Caricato, A. V. Marenich, 
 J. Bloino, B. G. Janesko, R. Gomperts, B. Mennucci, H. P. Hratchian, 
 J. V. Ortiz, A. F. Izmaylov, J. L. Sonnenberg, D. Williams-Young, 
 F. Ding, F. Lipparini, F. Egidi, J. Goings, B. Peng, A. Petrone, 
 T. Henderson, D. Ranasinghe, V. G. Zakrzewski, J. Gao, N. Rega, 
 G. Zheng, W. Liang, M. Hada, M. Ehara, K. Toyota, R. Fukuda, 
 J. Hasegawa, M. Ishida, T. Nakajima, Y. Honda, O. Kitao, H. Nakai, 
 T. Vreven, K. Throssell, J. A. Montgomery, Jr., J. E. Peralta, 
 F. Ogliaro, M. J. Bearpark, J. J. Heyd, E. N. Brothers, K. N. Kudin, 
 V. N. Staroverov, T. A. Keith, R. Kobayashi, J. Normand, 
 K. Raghavachari, A. P. Rendell, J. C. Burant, S. S. Iyengar, 
 J. Tomasi, M. Cossi, J. M. Millam, M. Klene, C. Adamo, R. Cammi, 
 J. W. Ochterski, R. L. Martin, K. Morokuma, O. Farkas, 
 J. B. Foresman, and D. J. Fox, Gaussian, Inc., Wallingford CT, 2016.
 
 ******************************************
 Gaussian 16:  ES64L-G16RevA.03 25-Dec-2016
                31-May-2021 
 ******************************************
 %nproc=8
 Will use up to    8 processors via shared memory.
 %Mem=4GB
 ----------------------------------------------------------------------
 #t B3LYP/LANL2DZ # SCRF=(Solvent=Water) # Gfinput IOP(6/7=3) Pop=hirsh
 feld Density Test # Units(Ang,Deg)
 ----------------------------------------------------------------------
 ----------
 3-tio2.pdb
 ----------
 Symbolic Z-matrix:
 Charge = -1 Multiplicity = 2
 Ti                   -1   -1.641     1.281    -0.014 
 Ti                   -1    1.10771   1.4132   -0.03946 
 Ti                   -1    3.85641   1.54539  -0.06492 
 O                    -1    2.59825   0.24907   0.2663 
 O                    -1    2.43627   2.63074  -0.53887 
 O                    -1   -0.25649   0.15493   0.47724 
 O                    -1   -0.2814    2.55791  -0.35239 
 O                    -1   -2.55713   2.59863  -0.32145 
 O                    -1    4.7771    0.2363    0.21798 
 
                    Distance matrix (angstroms):
                    1          2          3          4          5
     1  Ti   0.000000
     2  Ti   2.752000   0.000000
     3  Ti   5.504000   2.752000   0.000000
     4  O    4.372031   1.915826   1.836609   0.000000
     5  O    4.326823   1.870000   1.849165   2.519302   0.000000
     6  O    1.851000   1.926459   4.375305   2.864071   3.796453
     7  O    1.895660   1.827000   4.269583   3.742449   2.725034
     8  O    1.634000   3.862094   6.504506   5.695942   4.998231
     9  O    6.506700   3.862094   1.625240   2.179422   3.433019
                    6          7          8          9
     6  O    0.000000
     7  O    2.542288   0.000000
     8  O    3.449994   2.276301   0.000000
     9  O    5.040918   5.594962   7.724144   0.000000
 Framework group  C1[X(O6Ti3)]
 Deg. of freedom    21
                         Standard orientation:                         
 ---------------------------------------------------------------------
 Center     Atomic      Atomic             Coordinates (Angstroms)
 Number     Number       Type             X           Y           Z
 ---------------------------------------------------------------------
      1         22           0        2.726994    0.401258   -0.047705
      2         22           0        0.005248   -0.002642    0.001996
      3         22           0       -2.716498   -0.406541    0.051697
      4          8           0       -1.597126    1.046684   -0.039274
      5          8           0       -1.188846   -1.438791   -0.090267
      6          8           0        1.230515    1.480849    0.098021
      7          8           0        1.504924   -1.045720    0.031827
      8          8           0        3.772819   -0.850755    0.045392
      9          8           0       -3.765581    0.829526   -0.062169
 ---------------------------------------------------------------------
 Rotational constants (GHZ):           3.5585257           0.3919366           0.3533754
 AO basis set in the form of general basis input (Overlap normalization):
      1 0
 S   3 1.00       0.000000000000
      0.1098000000D+01 -0.1023676994D+00
      0.4178000000D+00 -0.3753172148D+00
      0.8720000000D-01  0.1215423149D+01
 S   3 1.00       0.000000000000
      0.4372000000D+01 -0.3637098367D+00
      0.1098000000D+01  0.8184533826D+00
      0.4178000000D+00  0.4184526423D+00
 S   1 1.00       0.000000000000
      0.3140000000D-01  0.1000000000D+01
 P   3 1.00       0.000000000000
      0.1252000000D+02 -0.4569080054D-01
      0.1491000000D+01  0.6203313074D+00
      0.4859000000D+00  0.4765329057D+00
 P   1 1.00       0.000000000000
      0.5300000000D-01  0.1000000000D+01
 P   1 1.00       0.000000000000
      0.1600000000D-01  0.1000000000D+01
 D   4 1.00       0.000000000000
      0.2021000000D+02  0.3416819898D-01
      0.5495000000D+01  0.1710005949D+00
      0.1699000000D+01  0.4405848869D+00
      0.4840000000D+00  0.6114245818D+00
 D   1 1.00       0.000000000000
      0.1157000000D+00  0.1000000000D+01
 ****
      2 0
 S   3 1.00       0.000000000000
      0.1098000000D+01 -0.1023676994D+00
      0.4178000000D+00 -0.3753172148D+00
      0.8720000000D-01  0.1215423149D+01
 S   3 1.00       0.000000000000
      0.4372000000D+01 -0.3637098367D+00
      0.1098000000D+01  0.8184533826D+00
      0.4178000000D+00  0.4184526423D+00
 S   1 1.00       0.000000000000
      0.3140000000D-01  0.1000000000D+01
 P   3 1.00       0.000000000000
      0.1252000000D+02 -0.4569080054D-01
      0.1491000000D+01  0.6203313074D+00
      0.4859000000D+00  0.4765329057D+00
 P   1 1.00       0.000000000000
      0.5300000000D-01  0.1000000000D+01
 P   1 1.00       0.000000000000
      0.1600000000D-01  0.1000000000D+01
 D   4 1.00       0.000000000000
      0.2021000000D+02  0.3416819898D-01
      0.5495000000D+01  0.1710005949D+00
      0.1699000000D+01  0.4405848869D+00
      0.4840000000D+00  0.6114245818D+00
 D   1 1.00       0.000000000000
      0.1157000000D+00  0.1000000000D+01
 ****
      3 0
 S   3 1.00       0.000000000000
      0.1098000000D+01 -0.1023676994D+00
      0.4178000000D+00 -0.3753172148D+00
      0.8720000000D-01  0.1215423149D+01
 S   3 1.00       0.000000000000
      0.4372000000D+01 -0.3637098367D+00
      0.1098000000D+01  0.8184533826D+00
      0.4178000000D+00  0.4184526423D+00
 S   1 1.00       0.000000000000
      0.3140000000D-01  0.1000000000D+01
 P   3 1.00       0.000000000000
      0.1252000000D+02 -0.4569080054D-01
      0.1491000000D+01  0.6203313074D+00
      0.4859000000D+00  0.4765329057D+00
 P   1 1.00       0.000000000000
      0.5300000000D-01  0.1000000000D+01
 P   1 1.00       0.000000000000
      0.1600000000D-01  0.1000000000D+01
 D   4 1.00       0.000000000000
      0.2021000000D+02  0.3416819898D-01
      0.5495000000D+01  0.1710005949D+00
      0.1699000000D+01  0.4405848869D+00
      0.4840000000D+00  0.6114245818D+00
 D   1 1.00       0.000000000000
      0.1157000000D+00  0.1000000000D+01
 ****
      4 0
 S   7 1.00       0.000000000000
      0.7817000000D+04  0.1176000331D-02
      0.1176000000D+04  0.8968002523D-02
      0.2732000000D+03  0.4286801206D-01
      0.8117000000D+02  0.1439300405D+00
      0.2718000000D+02  0.3556301000D+00
      0.9532000000D+01  0.4612481297D+00
      0.3414000000D+01  0.1402060394D+00
 S   2 1.00       0.000000000000
      0.9532000000D+01 -0.1541530739D+00
      0.9398000000D+00  0.1056914507D+01
 S   1 1.00       0.000000000000
      0.2846000000D+00  0.1000000000D+01
 P   4 1.00       0.000000000000
      0.3518000000D+02  0.1958000050D-01
      0.7904000000D+01  0.1242000032D+00
      0.2305000000D+01  0.3947140101D+00
      0.7171000000D+00  0.6273760161D+00
 P   1 1.00       0.000000000000
      0.2137000000D+00  0.1000000000D+01
 ****
      5 0
 S   7 1.00       0.000000000000
      0.7817000000D+04  0.1176000331D-02
      0.1176000000D+04  0.8968002523D-02
      0.2732000000D+03  0.4286801206D-01
      0.8117000000D+02  0.1439300405D+00
      0.2718000000D+02  0.3556301000D+00
      0.9532000000D+01  0.4612481297D+00
      0.3414000000D+01  0.1402060394D+00
 S   2 1.00       0.000000000000
      0.9532000000D+01 -0.1541530739D+00
      0.9398000000D+00  0.1056914507D+01
 S   1 1.00       0.000000000000
      0.2846000000D+00  0.1000000000D+01
 P   4 1.00       0.000000000000
      0.3518000000D+02  0.1958000050D-01
      0.7904000000D+01  0.1242000032D+00
      0.2305000000D+01  0.3947140101D+00
      0.7171000000D+00  0.6273760161D+00
 P   1 1.00       0.000000000000
      0.2137000000D+00  0.1000000000D+01
 ****
      6 0
 S   7 1.00       0.000000000000
      0.7817000000D+04  0.1176000331D-02
      0.1176000000D+04  0.8968002523D-02
      0.2732000000D+03  0.4286801206D-01
      0.8117000000D+02  0.1439300405D+00
      0.2718000000D+02  0.3556301000D+00
      0.9532000000D+01  0.4612481297D+00
      0.3414000000D+01  0.1402060394D+00
 S   2 1.00       0.000000000000
      0.9532000000D+01 -0.1541530739D+00
      0.9398000000D+00  0.1056914507D+01
 S   1 1.00       0.000000000000
      0.2846000000D+00  0.1000000000D+01
 P   4 1.00       0.000000000000
      0.3518000000D+02  0.1958000050D-01
      0.7904000000D+01  0.1242000032D+00
      0.2305000000D+01  0.3947140101D+00
      0.7171000000D+00  0.6273760161D+00
 P   1 1.00       0.000000000000
      0.2137000000D+00  0.1000000000D+01
 ****
      7 0
 S   7 1.00       0.000000000000
      0.7817000000D+04  0.1176000331D-02
      0.1176000000D+04  0.8968002523D-02
      0.2732000000D+03  0.4286801206D-01
      0.8117000000D+02  0.1439300405D+00
      0.2718000000D+02  0.3556301000D+00
      0.9532000000D+01  0.4612481297D+00
      0.3414000000D+01  0.1402060394D+00
 S   2 1.00       0.000000000000
      0.9532000000D+01 -0.1541530739D+00
      0.9398000000D+00  0.1056914507D+01
 S   1 1.00       0.000000000000
      0.2846000000D+00  0.1000000000D+01
 P   4 1.00       0.000000000000
      0.3518000000D+02  0.1958000050D-01
      0.7904000000D+01  0.1242000032D+00
      0.2305000000D+01  0.3947140101D+00
      0.7171000000D+00  0.6273760161D+00
 P   1 1.00       0.000000000000
      0.2137000000D+00  0.1000000000D+01
 ****
      8 0
 S   7 1.00       0.000000000000
      0.7817000000D+04  0.1176000331D-02
      0.1176000000D+04  0.8968002523D-02
      0.2732000000D+03  0.4286801206D-01
      0.8117000000D+02  0.1439300405D+00
      0.2718000000D+02  0.3556301000D+00
      0.9532000000D+01  0.4612481297D+00
      0.3414000000D+01  0.1402060394D+00
 S   2 1.00       0.000000000000
      0.9532000000D+01 -0.1541530739D+00
      0.9398000000D+00  0.1056914507D+01
 S   1 1.00       0.000000000000
      0.2846000000D+00  0.1000000000D+01
 P   4 1.00       0.000000000000
      0.3518000000D+02  0.1958000050D-01
      0.7904000000D+01  0.1242000032D+00
      0.2305000000D+01  0.3947140101D+00
      0.7171000000D+00  0.6273760161D+00
 P   1 1.00       0.000000000000
      0.2137000000D+00  0.1000000000D+01
 ****
      9 0
 S   7 1.00       0.000000000000
      0.7817000000D+04  0.1176000331D-02
      0.1176000000D+04  0.8968002523D-02
      0.2732000000D+03  0.4286801206D-01
      0.8117000000D+02  0.1439300405D+00
      0.2718000000D+02  0.3556301000D+00
      0.9532000000D+01  0.4612481297D+00
      0.3414000000D+01  0.1402060394D+00
 S   2 1.00       0.000000000000
      0.9532000000D+01 -0.1541530739D+00
      0.9398000000D+00  0.1056914507D+01
 S   1 1.00       0.000000000000
      0.2846000000D+00  0.1000000000D+01
 P   4 1.00       0.000000000000
      0.3518000000D+02  0.1958000050D-01
      0.7904000000D+01  0.1242000032D+00
      0.2305000000D+01  0.3947140101D+00
      0.7171000000D+00  0.6273760161D+00
 P   1 1.00       0.000000000000
      0.2137000000D+00  0.1000000000D+01
 ****

 Effective core potential in the form of general ECP input:
      1 0
 Ti1-ECP   2 10
 D component
  3
  1      265.3263909      -10.00000000    0.00000000
  2       47.7687815      -51.84278160    0.00000000
  2       11.8903334       -9.14291450    0.00000000
 S-D projection
  5
  0       81.4730696        3.00000000    0.00000000
  1       72.6496724       19.48255790    0.00000000
  2       31.8128213      207.33492790    0.00000000
  2        6.1664468      235.67445010    0.00000000
  2        5.8268347     -166.87843870    0.00000000
 P-D projection
  5
  0       50.2966943        5.00000000    0.00000000
  1       63.5089754        5.53488220    0.00000000
  2       26.0996084      177.84193840    0.00000000
  2        5.6022573      107.42071530    0.00000000
  2        5.2171069      -71.90659020    0.00000000
      2 0
 Ti2-ECP   2 10
 D component
  3
  1      265.3263909      -10.00000000    0.00000000
  2       47.7687815      -51.84278160    0.00000000
  2       11.8903334       -9.14291450    0.00000000
 S-D projection
  5
  0       81.4730696        3.00000000    0.00000000
  1       72.6496724       19.48255790    0.00000000
  2       31.8128213      207.33492790    0.00000000
  2        6.1664468      235.67445010    0.00000000
  2        5.8268347     -166.87843870    0.00000000
 P-D projection
  5
  0       50.2966943        5.00000000    0.00000000
  1       63.5089754        5.53488220    0.00000000
  2       26.0996084      177.84193840    0.00000000
  2        5.6022573      107.42071530    0.00000000
  2        5.2171069      -71.90659020    0.00000000
      3 0
 Ti3-ECP   2 10
 D component
  3
  1      265.3263909      -10.00000000    0.00000000
  2       47.7687815      -51.84278160    0.00000000
  2       11.8903334       -9.14291450    0.00000000
 S-D projection
  5
  0       81.4730696        3.00000000    0.00000000
  1       72.6496724       19.48255790    0.00000000
  2       31.8128213      207.33492790    0.00000000
  2        6.1664468      235.67445010    0.00000000
  2        5.8268347     -166.87843870    0.00000000
 P-D projection
  5
  0       50.2966943        5.00000000    0.00000000
  1       63.5089754        5.53488220    0.00000000
  2       26.0996084      177.84193840    0.00000000
  2        5.6022573      107.42071530    0.00000000
  2        5.2171069      -71.90659020    0.00000000
 
   120 basis functions,   306 primitive gaussians,   126 cartesian basis functions
    43 alpha electrons       42 beta electrons
       nuclear repulsion energy       586.5669931727 Hartrees.
 NAtoms=    9 NActive=    9 NUniq=    9 SFac= 1.00D+00 NAtFMM=   60 NAOKFM=F Big=F
 ------------------------------------------------------------------------------
 Polarizable Continuum Model (PCM)
 =================================
 Model                : PCM.
 Atomic radii         : UFF (Universal Force Field).
 Polarization charges : Total charges.
 Charge compensation  : None.
 Solution method      : On-the-fly selection.
 Cavity type          : Scaled VdW (van der Waals Surface) (Alpha=1.100).
 Cavity algorithm     : GePol (No added spheres)
                        Default sphere list used, NSphG=    9.
                        Lebedev-Laikov grids with approx.  5.0 points / Ang**2.
                        Smoothing algorithm: York/Karplus (Gamma=1.0000).
                        Polarization charges: spherical gaussians, with
                                              point-specific exponents (IZeta= 3).
                        Self-potential: point-specific (ISelfS= 7).
                        Self-field    : sphere-specific E.n sum rule (ISelfD= 2).
 Solvent              : Water, Eps=  78.355300 Eps(inf)=   1.777849
 ------------------------------------------------------------------------------
 Spheres list:
 ISph  on   Nord     Re0    Alpha      Xe            Ye            Ze
    1  Ti      1    1.5875  1.100      2.726994      0.401258     -0.047705
    2  Ti      2    1.5875  1.100      0.005248     -0.002642      0.001996
    3  Ti      3    1.5875  1.100     -2.716498     -0.406541      0.051697
    4   O      4    1.7500  1.100     -1.597126      1.046684     -0.039274
    5   O      5    1.7500  1.100     -1.188846     -1.438791     -0.090267
    6   O      6    1.7500  1.100      1.230515      1.480849      0.098021
    7   O      7    1.7500  1.100      1.504924     -1.045720      0.031827
    8   O      8    1.7500  1.100      3.772819     -0.850755      0.045392
    9   O      9    1.7500  1.100     -3.765581      0.829526     -0.062169
 ------------------------------------------------------------------------------
   1 Symmetry operations used in ECPInt.
 ECPInt:  NShTT=    1485 NPrTT=   10224 LenC2=    1449 LenP2D=    7176.
 LDataN:  DoStor=T MaxTD1= 4 Len=   56
 ExpMin= 1.60D-02 ExpMax= 7.82D+03 ExpMxC= 2.73D+02 IAcc=3 IRadAn=         5 AccDes= 0.00D+00
 Harris functional with IExCor=  402 and IRadAn=       5 diagonalized for initial guess.
 HarFok:  IExCor=  402 AccDes= 0.00D+00 IRadAn=         5 IDoV= 1 UseB2=F ITyADJ=14
 ICtDFT=  3500011 ScaDFX=  1.000000  1.000000  1.000000  1.000000
 FoFCou: FMM=F IPFlag=           0 FMFlag=      100000 FMFlg1=           0
         NFxFlg=           0 DoJE=T BraDBF=F KetDBF=T FulRan=T
         wScrn=  0.000000 ICntrl=       500 IOpCl=  0 I1Cent=   200000004 NGrid=           0
         NMat0=    1 NMatS0=      1 NMatT0=    0 NMatD0=    1 NMtDS0=    0 NMtDT0=    0
 Petite list used in FoFCou.
 Initial guess <Sx>= 0.0000 <Sy>= 0.0000 <Sz>= 0.5000 <S**2>= 0.7500 S= 0.5000
 Inv3:  Mode=1 IEnd=     4657548.
 Iteration    1 A*A^-1 deviation from unit magnitude is 3.44D-15 for    921.
 Iteration    1 A*A^-1 deviation from orthogonality  is 2.38D-15 for    558    394.
 Iteration    1 A^-1*A deviation from unit magnitude is 3.11D-15 for      2.
 Iteration    1 A^-1*A deviation from orthogonality  is 1.24D-15 for    729    682.
 EnCoef did     3 forward-backward iterations
 Error on total polarization charges =  0.05184
 SCF Done:  E(UB3LYP) =  -626.154980735     A.U. after   27 cycles
            NFock= 27  Conv=0.53D-08     -V/T= 2.1963
 <Sx>= 0.0000 <Sy>= 0.0000 <Sz>= 0.5000 <S**2>= 0.7542 S= 0.5021
 <L.S>=  0.00000000000    
 Annihilation of the first spin contaminant:
 S**2 before annihilation     0.7542,   after     0.7500

 **********************************************************************

            Population analysis using the SCF density.

 **********************************************************************

 Orbital symmetries:
 Alpha Orbitals:
       Occupied  (A) (A) (A) (A) (A) (A) (A) (A) (A) (A) (A) (A)
                 (A) (A) (A) (A) (A) (A) (A) (A) (A) (A) (A) (A)
                 (A) (A) (A) (A) (A) (A) (A) (A) (A) (A) (A) (A)
                 (A) (A) (A) (A) (A) (A) (A)
       Virtual   (A) (A) (A) (A) (A) (A) (A) (A) (A) (A) (A) (A)
                 (A) (A) (A) (A) (A) (A) (A) (A) (A) (A) (A) (A)
                 (A) (A) (A) (A) (A) (A) (A) (A) (A) (A) (A) (A)
                 (A) (A) (A) (A) (A) (A) (A) (A) (A) (A) (A) (A)
                 (A) (A) (A) (A) (A) (A) (A) (A) (A) (A) (A) (A)
                 (A) (A) (A) (A) (A) (A) (A) (A) (A) (A) (A) (A)
                 (A) (A) (A) (A) (A)
 Beta  Orbitals:
       Occupied  (A) (A) (A) (A) (A) (A) (A) (A) (A) (A) (A) (A)
                 (A) (A) (A) (A) (A) (A) (A) (A) (A) (A) (A) (A)
                 (A) (A) (A) (A) (A) (A) (A) (A) (A) (A) (A) (A)
                 (A) (A) (A) (A) (A) (A)
       Virtual   (A) (A) (A) (A) (A) (A) (A) (A) (A) (A) (A) (A)
                 (A) (A) (A) (A) (A) (A) (A) (A) (A) (A) (A) (A)
                 (A) (A) (A) (A) (A) (A) (A) (A) (A) (A) (A) (A)
                 (A) (A) (A) (A) (A) (A) (A) (A) (A) (A) (A) (A)
                 (A) (A) (A) (A) (A) (A) (A) (A) (A) (A) (A) (A)
                 (A) (A) (A) (A) (A) (A) (A) (A) (A) (A) (A) (A)
                 (A) (A) (A) (A) (A) (A)
 The electronic state is 2-A.
 Alpha  occ. eigenvalues --  -19.07211 -19.07109 -19.06573 -19.06434 -19.06418
 Alpha  occ. eigenvalues --  -19.06243  -2.41139  -2.40045  -2.37551  -1.54055
 Alpha  occ. eigenvalues --   -1.53415  -1.53185  -1.53144  -1.52452  -1.51998
 Alpha  occ. eigenvalues --   -1.50179  -1.49528  -1.49455  -0.87317  -0.85649
 Alpha  occ. eigenvalues --   -0.85442  -0.83823  -0.81701  -0.80868  -0.36218
 Alpha  occ. eigenvalues --   -0.34518  -0.34238  -0.33763  -0.32665  -0.31197
 Alpha  occ. eigenvalues --   -0.30850  -0.30434  -0.29555  -0.29463  -0.29203
 Alpha  occ. eigenvalues --   -0.26006  -0.24657  -0.24373  -0.23702  -0.23535
 Alpha  occ. eigenvalues --   -0.23069  -0.19930  -0.15092
 Alpha virt. eigenvalues --   -0.06946  -0.06025  -0.05852  -0.04486  -0.01476
 Alpha virt. eigenvalues --   -0.01054  -0.00541   0.00416   0.00836   0.01153
 Alpha virt. eigenvalues --    0.01301   0.01414   0.01757   0.02239   0.02430
 Alpha virt. eigenvalues --    0.02805   0.02837   0.03355   0.03670   0.04568
 Alpha virt. eigenvalues --    0.04857   0.05595   0.09832   0.10321   0.11618
 Alpha virt. eigenvalues --    0.12911   0.13042   0.13242   0.13481   0.15601
 Alpha virt. eigenvalues --    0.16302   0.17589   0.19920   0.20510   0.25788
 Alpha virt. eigenvalues --    0.32338   0.32977   0.34925   0.35208   0.35515
 Alpha virt. eigenvalues --    0.36202   0.37261   0.39000   0.40938   0.43474
 Alpha virt. eigenvalues --    0.43652   0.46929   0.50431   0.51690   0.56135
 Alpha virt. eigenvalues --    0.70734   0.74910   0.77200   0.77572   0.79571
 Alpha virt. eigenvalues --    0.81582   0.81880   0.83344   0.85754   0.87098
 Alpha virt. eigenvalues --    0.91066   0.91852   0.92736   0.93418   1.00341
 Alpha virt. eigenvalues --    1.07892   1.08352   1.10835   1.37463   1.43087
 Alpha virt. eigenvalues --    1.57714   1.72524   1.76502   1.97895   4.16044
 Alpha virt. eigenvalues --    9.48367  15.45148
  Beta  occ. eigenvalues --  -19.07279 -19.07101 -19.06629 -19.06474 -19.06425
  Beta  occ. eigenvalues --  -19.06303  -2.40989  -2.39947  -2.34805  -1.53944
  Beta  occ. eigenvalues --   -1.53208  -1.53083  -1.52926  -1.52280  -1.51860
  Beta  occ. eigenvalues --   -1.48521  -1.47052  -1.45082  -0.87382  -0.85753
  Beta  occ. eigenvalues --   -0.85490  -0.83925  -0.81700  -0.80887  -0.36018
  Beta  occ. eigenvalues --   -0.34351  -0.34214  -0.33715  -0.32626  -0.31179
  Beta  occ. eigenvalues --   -0.30781  -0.30451  -0.29581  -0.29373  -0.29229
  Beta  occ. eigenvalues --   -0.25999  -0.24745  -0.24012  -0.23845  -0.23590
  Beta  occ. eigenvalues --   -0.23106  -0.19999
  Beta virt. eigenvalues --   -0.07071  -0.06150  -0.05763  -0.04424  -0.02131
  Beta virt. eigenvalues --   -0.01182  -0.00593  -0.00442   0.00508   0.01131
  Beta virt. eigenvalues --    0.01335   0.01529   0.01693   0.02219   0.02376
  Beta virt. eigenvalues --    0.02656   0.02836   0.03510   0.03684   0.04646
  Beta virt. eigenvalues --    0.04729   0.04853   0.05585   0.10576   0.11405
  Beta virt. eigenvalues --    0.11657   0.13157   0.13633   0.14033   0.14086
  Beta virt. eigenvalues --    0.15650   0.16388   0.18133   0.20491   0.20678
  Beta virt. eigenvalues --    0.26041   0.33119   0.34619   0.35080   0.35372
  Beta virt. eigenvalues --    0.35527   0.36230   0.37322   0.39243   0.41046
  Beta virt. eigenvalues --    0.43566   0.43977   0.46940   0.50632   0.52308
  Beta virt. eigenvalues --    0.56516   0.70783   0.74944   0.77387   0.77597
  Beta virt. eigenvalues --    0.79581   0.81571   0.81862   0.83336   0.85765
  Beta virt. eigenvalues --    0.87119   0.91077   0.91833   0.92768   0.93423
  Beta virt. eigenvalues --    1.00354   1.07942   1.08370   1.10864   1.37487
  Beta virt. eigenvalues --    1.43080   1.57720   1.72524   1.76513   1.97875
  Beta virt. eigenvalues --    4.16126   9.48272  15.44534
     Alpha Molecular Orbital Coefficients:
                           1         2         3         4         5
                           O         O         O         O         O
     Eigenvalues --   -19.07211 -19.07109 -19.06573 -19.06434 -19.06418
   1 1   Ti 1S          0.00019   0.00172   0.00027   0.00022   0.00076
   2        2S         -0.00000   0.00065   0.00005   0.00007   0.00020
   3        3S         -0.00024  -0.00078   0.00077   0.00031  -0.00074
   4        4PX        -0.00011   0.00019   0.00004   0.00001  -0.00011
   5        4PY        -0.00012  -0.00018   0.00001   0.00000   0.00008
   6        4PZ         0.00001   0.00003   0.00000   0.00000   0.00002
   7        5PX        -0.00026   0.00077  -0.00049  -0.00025  -0.00003
   8        5PY         0.00004  -0.00012   0.00044   0.00013   0.00011
   9        5PZ         0.00001   0.00008   0.00000  -0.00000   0.00002
  10        6PX         0.00017  -0.00019  -0.00008   0.00006   0.00012
  11        6PY        -0.00006   0.00013  -0.00006  -0.00002   0.00006
  12        6PZ         0.00000  -0.00004  -0.00001   0.00000  -0.00001
  13        7D 0       -0.00006  -0.00003  -0.00002   0.00000  -0.00008
  14        7D+1       -0.00001  -0.00000  -0.00000   0.00000  -0.00002
  15        7D-1       -0.00001   0.00000  -0.00000  -0.00000   0.00001
  16        7D+2       -0.00004   0.00002  -0.00003  -0.00000   0.00003
  17        7D-2        0.00013  -0.00006   0.00002   0.00000  -0.00015
  18        8D 0       -0.00028  -0.00055  -0.00006  -0.00006  -0.00045
  19        8D+1       -0.00002   0.00002   0.00001   0.00001  -0.00006
  20        8D-1        0.00000   0.00000   0.00001   0.00001   0.00007
  21        8D+2        0.00016   0.00010   0.00022   0.00010   0.00015
  22        8D-2       -0.00001  -0.00138  -0.00041  -0.00017  -0.00060
  23 2   Ti 1S          0.00126  -0.00024   0.00127  -0.00020   0.00127
  24        2S          0.00032  -0.00005   0.00029  -0.00004   0.00027
  25        3S         -0.00057   0.00017  -0.00048   0.00012  -0.00045
  26        4PX         0.00015   0.00000  -0.00009   0.00000   0.00004
  27        4PY        -0.00011  -0.00003   0.00008   0.00003   0.00009
  28        4PZ         0.00000   0.00000  -0.00000   0.00000   0.00001
  29        5PX         0.00126   0.00047  -0.00128  -0.00046   0.00142
  30        5PY         0.00000  -0.00023  -0.00004   0.00024   0.00013
  31        5PZ        -0.00000  -0.00004   0.00000   0.00004  -0.00001
  32        6PX        -0.00001   0.00025  -0.00000  -0.00026   0.00024
  33        6PY         0.00022   0.00004  -0.00019  -0.00005  -0.00010
  34        6PZ        -0.00002   0.00002   0.00002  -0.00002  -0.00002
  35        7D 0       -0.00008  -0.00000  -0.00008  -0.00001  -0.00008
  36        7D+1        0.00000  -0.00000   0.00000  -0.00000   0.00001
  37        7D-1       -0.00001  -0.00000  -0.00001  -0.00001   0.00001
  38        7D+2        0.00003   0.00001   0.00003   0.00001  -0.00004
  39        7D-2       -0.00012  -0.00001  -0.00013  -0.00001   0.00012
  40        8D 0       -0.00060   0.00016  -0.00062   0.00014  -0.00062
  41        8D+1        0.00003  -0.00001   0.00004  -0.00000   0.00009
  42        8D-1       -0.00004  -0.00004  -0.00004  -0.00004   0.00010
  43        8D+2        0.00078   0.00007   0.00082   0.00002  -0.00019
  44        8D-2       -0.00172  -0.00086  -0.00172  -0.00094   0.00155
  45 3   Ti 1S          0.00029   0.00025   0.00016   0.00170  -0.00029
  46        2S          0.00007   0.00008   0.00002   0.00065  -0.00012
  47        3S          0.00076   0.00029  -0.00031  -0.00075   0.00116
  48        4PX        -0.00003  -0.00000   0.00013  -0.00020  -0.00001
  49        4PY        -0.00001  -0.00000   0.00014   0.00017   0.00000
  50        4PZ        -0.00000  -0.00000  -0.00001  -0.00003   0.00000
  51        5PX         0.00051   0.00024   0.00021  -0.00074   0.00052
  52        5PY        -0.00045  -0.00011  -0.00003   0.00008   0.00057
  53        5PZ        -0.00000   0.00000  -0.00001  -0.00009   0.00003
  54        6PX         0.00008  -0.00006  -0.00017   0.00020   0.00005
  55        6PY         0.00005   0.00002   0.00004  -0.00012  -0.00003
  56        6PZ         0.00001  -0.00000  -0.00000   0.00005  -0.00001
  57        7D 0       -0.00003  -0.00000  -0.00005  -0.00003   0.00001
  58        7D+1       -0.00000   0.00000  -0.00001  -0.00000  -0.00001
  59        7D-1       -0.00000  -0.00000  -0.00001   0.00000   0.00000
  60        7D+2       -0.00003  -0.00000  -0.00004   0.00002  -0.00001
  61        7D-2        0.00001  -0.00000   0.00013  -0.00006  -0.00002
  62        8D 0       -0.00006  -0.00006  -0.00026  -0.00053   0.00011
  63        8D+1        0.00000   0.00000  -0.00002   0.00003   0.00003
  64        8D-1        0.00002   0.00001   0.00000  -0.00001  -0.00002
  65        8D+2        0.00021   0.00008   0.00013   0.00018  -0.00004
  66        8D-2       -0.00042  -0.00017  -0.00001  -0.00137   0.00060
  67 4   O  1S          0.00058   0.00010   0.99884   0.00190   0.00034
  68        2S          0.00033   0.00005   0.00655  -0.00006  -0.00001
  69        3S         -0.00119  -0.00020  -0.00481   0.00003   0.00011
  70        4PX         0.00004   0.00003   0.00013   0.00009  -0.00002
  71        4PY        -0.00000   0.00000  -0.00082   0.00003  -0.00000
  72        4PZ         0.00000  -0.00000   0.00005  -0.00000   0.00000
  73        5PX        -0.00060  -0.00017  -0.00051  -0.00048   0.00012
  74        5PY         0.00027  -0.00000   0.00095  -0.00018   0.00007
  75        5PZ        -0.00001   0.00000  -0.00005   0.00001  -0.00001
  76 5   O  1S         -0.00008  -0.00015  -0.00070   0.00121   0.00149
  77        2S         -0.00002  -0.00010  -0.00005   0.00019   0.00024
  78        3S          0.00015   0.00038   0.00013  -0.00062  -0.00086
  79        4PX        -0.00004  -0.00002  -0.00000  -0.00005   0.00004
  80        4PY        -0.00002  -0.00001  -0.00005  -0.00001   0.00001
  81        4PZ         0.00000  -0.00000  -0.00000   0.00002  -0.00000
  82        5PX         0.00029   0.00018   0.00017   0.00062  -0.00053
  83        5PY         0.00002   0.00016   0.00004   0.00002  -0.00034
  84        5PZ        -0.00001   0.00001   0.00000  -0.00011   0.00000
  85 6   O  1S         -0.00026   0.00035  -0.00033  -0.00726   0.99883
  86        2S         -0.00003   0.00020  -0.00001  -0.00014   0.00660
  87        3S          0.00010  -0.00067   0.00014   0.00039  -0.00513
  88        4PX         0.00000   0.00005   0.00002   0.00001   0.00014
  89        4PY         0.00005   0.00001   0.00002   0.00002  -0.00063
  90        4PZ         0.00000  -0.00001  -0.00000   0.00000  -0.00005
  91        5PX        -0.00016  -0.00064  -0.00025  -0.00015  -0.00002
  92        5PY        -0.00005  -0.00000  -0.00001  -0.00019   0.00098
  93        5PZ         0.00000   0.00010   0.00002  -0.00001   0.00009
  94 7   O  1S          0.99884   0.00213  -0.00056  -0.00009   0.00026
  95        2S          0.00656  -0.00004   0.00033   0.00006  -0.00001
  96        3S         -0.00486  -0.00002  -0.00128  -0.00026   0.00009
  97        4PX        -0.00013  -0.00009  -0.00002  -0.00003   0.00001
  98        4PY         0.00082  -0.00003  -0.00000  -0.00001  -0.00006
  99        4PZ        -0.00004   0.00000   0.00000   0.00000  -0.00000
 100        5PX         0.00043   0.00038   0.00049   0.00020  -0.00007
 101        5PY        -0.00094   0.00016  -0.00028   0.00002   0.00001
 102        5PZ         0.00003  -0.00001  -0.00000  -0.00000   0.00000
 103 8   O  1S         -0.00213   0.99883  -0.00010  -0.00009  -0.00034
 104        2S         -0.00007   0.00640   0.00005   0.00004   0.00021
 105        3S         -0.00002  -0.00436  -0.00021  -0.00015  -0.00078
 106        4PX         0.00005  -0.00031   0.00000  -0.00000   0.00003
 107        4PY         0.00000   0.00060   0.00000   0.00001  -0.00000
 108        4PZ        -0.00000  -0.00003  -0.00000  -0.00000  -0.00001
 109        5PX        -0.00012   0.00034   0.00002   0.00002  -0.00001
 110        5PY        -0.00003  -0.00073  -0.00010  -0.00006  -0.00019
 111        5PZ         0.00002   0.00010   0.00001   0.00001   0.00010
 112 9   O  1S          0.00009   0.00009  -0.00190   0.99880   0.00725
 113        2S          0.00007   0.00005  -0.00009   0.00644  -0.00005
 114        3S         -0.00025  -0.00017   0.00003  -0.00439   0.00039
 115        4PX         0.00000   0.00000  -0.00005   0.00030   0.00002
 116        4PY        -0.00000  -0.00000  -0.00000  -0.00062   0.00001
 117        4PZ         0.00000   0.00000   0.00000   0.00004  -0.00001
 118        5PX        -0.00006  -0.00003   0.00014  -0.00036  -0.00003
 119        5PY         0.00008   0.00005   0.00001   0.00075  -0.00015
 120        5PZ        -0.00002  -0.00002  -0.00002  -0.00011   0.00005
                           6         7         8         9        10
                           O         O         O         O         O
     Eigenvalues --   -19.06243  -2.41139  -2.40045  -2.37551  -1.54055
   1 1   Ti 1S         -0.00033  -0.00982   0.00022  -0.00053   0.00133
   2        2S         -0.00012   1.00070  -0.00350  -0.02696  -0.01660
   3        3S          0.00116   0.00173  -0.00417  -0.00269  -0.00674
   4        4PX         0.00000   0.00525  -0.00025  -0.00188   0.81105
   5        4PY        -0.00000  -0.01548   0.00008   0.00002  -0.48476
   6        4PZ        -0.00000   0.00244   0.00002  -0.00006   0.04484
   7        5PX        -0.00051   0.00302   0.00288   0.00019   0.00426
   8        5PY        -0.00061   0.00328   0.00058   0.00057  -0.00116
   9        5PZ        -0.00003  -0.00005   0.00006  -0.00019  -0.00044
  10        6PX        -0.00005  -0.00091   0.00021   0.00046  -0.00162
  11        6PY         0.00004  -0.00019  -0.00022  -0.00021   0.00216
  12        6PZ         0.00001  -0.00010   0.00002   0.00007   0.00027
  13        7D 0        0.00001   0.00288  -0.00007  -0.00053  -0.00452
  14        7D+1       -0.00001   0.00007  -0.00001  -0.00001   0.00189
  15        7D-1        0.00000   0.00008  -0.00000  -0.00002  -0.00161
  16        7D+2       -0.00001   0.00060   0.00009   0.00091  -0.00535
  17        7D-2       -0.00002   0.00280   0.00008   0.00018  -0.01342
  18        8D 0        0.00013   0.00128   0.00019   0.00258   0.00177
  19        8D+1        0.00003  -0.00010  -0.00009   0.00035   0.00001
  20        8D-1       -0.00003   0.00020   0.00005  -0.00024   0.00039
  21        8D+2       -0.00005  -0.00022  -0.00122   0.00161   0.00405
  22        8D-2        0.00064  -0.00081  -0.00083   0.00176   0.00224
  23 2   Ti 1S          0.00124  -0.00046  -0.00044  -0.00855  -0.00210
  24        2S          0.00028   0.02608   0.03760   1.00042   0.00603
  25        3S         -0.00047   0.00325   0.00348   0.00534  -0.00119
  26        4PX        -0.00008   0.00162  -0.00151   0.00154  -0.18490
  27        4PY        -0.00012   0.00014  -0.00020  -0.00245  -0.04678
  28        4PZ        -0.00001  -0.00004   0.00004  -0.00001   0.00061
  29        5PX        -0.00141  -0.00018   0.00054   0.00013   0.00513
  30        5PY        -0.00010  -0.00130   0.00116  -0.00039   0.00253
  31        5PZ         0.00001  -0.00016   0.00014  -0.00000   0.00054
  32        6PX        -0.00023  -0.00056   0.00067  -0.00005   0.00434
  33        6PY         0.00010  -0.00028   0.00025   0.00036  -0.00175
  34        6PZ         0.00002   0.00018  -0.00018  -0.00001  -0.00048
  35        7D 0       -0.00008  -0.00046  -0.00045  -0.00112   0.00171
  36        7D+1        0.00001  -0.00003  -0.00002   0.00011   0.00007
  37        7D-1        0.00001  -0.00001  -0.00001   0.00003  -0.00000
  38        7D+2       -0.00004   0.00078   0.00077   0.00283  -0.00237
  39        7D-2        0.00012   0.00023   0.00016   0.00101  -0.00101
  40        8D 0       -0.00061   0.00271   0.00246   0.00233  -0.00221
  41        8D+1        0.00009  -0.00030  -0.00031   0.00009   0.00081
  42        8D-1        0.00009  -0.00022  -0.00019  -0.00001   0.00068
  43        8D+2       -0.00018   0.00373   0.00420  -0.00445  -0.00907
  44        8D-2        0.00160  -0.00100  -0.00118  -0.00056  -0.00252
  45 3   Ti 1S          0.00075   0.00010  -0.00888  -0.00053   0.00134
  46        2S          0.00019   0.00307   0.99999  -0.03885  -0.00043
  47        3S         -0.00069  -0.00388   0.00156  -0.00256   0.00812
  48        4PX         0.00011   0.00022  -0.00461   0.00187   0.11769
  49        4PY        -0.00007   0.00005   0.01752  -0.00033  -0.02232
  50        4PZ        -0.00002  -0.00003  -0.00279   0.00010   0.00022
  51        5PX         0.00006  -0.00278  -0.00268  -0.00022   0.00772
  52        5PY        -0.00008  -0.00027  -0.00332   0.00009   0.00023
  53        5PZ        -0.00002  -0.00006   0.00008   0.00019   0.00011
  54        6PX        -0.00012  -0.00023   0.00079  -0.00039  -0.00162
  55        6PY        -0.00007   0.00016   0.00025  -0.00019   0.00083
  56        6PZ         0.00001  -0.00002   0.00010  -0.00006   0.00005
  57        7D 0       -0.00008  -0.00003   0.00240  -0.00052  -0.00002
  58        7D+1       -0.00001  -0.00001   0.00003  -0.00001  -0.00026
  59        7D-1        0.00001  -0.00000   0.00012  -0.00002   0.00013
  60        7D+2        0.00003   0.00009   0.00032   0.00094   0.00107
  61        7D-2       -0.00015   0.00011   0.00218   0.00015   0.00185
  62        8D 0       -0.00046   0.00027   0.00129   0.00255  -0.00015
  63        8D+1       -0.00006  -0.00008  -0.00012   0.00038   0.00038
  64        8D-1        0.00006   0.00000   0.00024  -0.00028  -0.00012
  65        8D+2        0.00019  -0.00123  -0.00003   0.00129   0.00314
  66        8D-2       -0.00058  -0.00057  -0.00063   0.00212   0.00117
  67 4   O  1S          0.00070  -0.00007  -0.00305  -0.00205  -0.00276
  68        2S         -0.00003  -0.00017   0.00550   0.00339   0.00631
  69        3S          0.00012   0.00106   0.00545   0.00521   0.00261
  70        4PX        -0.00001   0.00001  -0.00392   0.00463   0.00187
  71        4PY         0.00006  -0.00022  -0.00571  -0.00276  -0.00393
  72        4PZ         0.00000  -0.00000   0.00033   0.00010   0.00021
  73        5PX         0.00011   0.00092   0.00193  -0.00341  -0.00229
  74        5PY        -0.00002   0.00078   0.00271  -0.00027  -0.00265
  75        5PZ        -0.00000   0.00005  -0.00012   0.00009  -0.00007
  76 5   O  1S          0.99884  -0.00010  -0.00278  -0.00250  -0.00423
  77        2S          0.00665  -0.00045   0.00437   0.00429   0.00921
  78        3S         -0.00521   0.00266   0.00686   0.00590   0.00524
  79        4PX        -0.00013   0.00005  -0.00500   0.00404  -0.00004
  80        4PY         0.00065   0.00020   0.00382   0.00467   0.00576
  81        4PZ         0.00005   0.00000   0.00043   0.00028   0.00053
  82        5PX         0.00005   0.00113   0.00347  -0.00388  -0.00288
  83        5PY        -0.00097  -0.00001  -0.00069  -0.00113   0.00175
  84        5PZ        -0.00009   0.00008   0.00014   0.00004   0.00018
  85 6   O  1S         -0.00147  -0.00268  -0.00009  -0.00201   0.01710
  86        2S          0.00021   0.00420  -0.00045   0.00330  -0.03696
  87        3S         -0.00078   0.00676   0.00245   0.00556  -0.02377
  88        4PX        -0.00004   0.00495  -0.00003  -0.00335  -0.01910
  89        4PY        -0.00002  -0.00384  -0.00018  -0.00388   0.02070
  90        4PZ         0.00000  -0.00043   0.00000  -0.00023   0.00294
  91        5PX         0.00055  -0.00359  -0.00152   0.00350   0.00691
  92        5PY         0.00037   0.00058  -0.00005   0.00074  -0.00039
  93        5PZ        -0.00000  -0.00011  -0.00009  -0.00006  -0.00043
  94 7   O  1S          0.00008  -0.00242  -0.00011  -0.00305   0.00490
  95        2S         -0.00002   0.00409  -0.00001   0.00550  -0.01079
  96        3S          0.00015   0.00571   0.00089   0.00550  -0.00658
  97        4PX         0.00003   0.00337  -0.00019  -0.00601   0.00236
  98        4PY         0.00000   0.00462   0.00027   0.00409  -0.00971
  99        4PZ        -0.00000  -0.00023  -0.00000  -0.00011   0.00053
 100        5PX        -0.00016  -0.00169  -0.00065   0.00423   0.00664
 101        5PY        -0.00009  -0.00227  -0.00095  -0.00020   0.00028
 102        5PZ         0.00001   0.00008  -0.00001  -0.00008   0.00006
 103 8   O  1S          0.00015  -0.00647   0.00003   0.00018  -0.02898
 104        2S         -0.00010   0.01334  -0.00001  -0.00047   0.06285
 105        3S          0.00044   0.00355  -0.00046   0.00164   0.02852
 106        4PX        -0.00001  -0.00880   0.00008  -0.00005  -0.02793
 107        4PY        -0.00002   0.01061  -0.00009  -0.00020   0.03882
 108        4PZ         0.00001  -0.00077  -0.00001   0.00007  -0.00267
 109        5PX         0.00003   0.00324  -0.00011   0.00080   0.00511
 110        5PY         0.00017  -0.00477   0.00025  -0.00022  -0.00602
 111        5PZ        -0.00005   0.00034   0.00007  -0.00041   0.00042
 112 9   O  1S         -0.00121  -0.00002  -0.00677   0.00027   0.00312
 113        2S          0.00019   0.00002   0.01381  -0.00061  -0.00672
 114        3S         -0.00076  -0.00021   0.00380   0.00149  -0.00225
 115        4PX        -0.00003  -0.00003   0.00919  -0.00009  -0.00253
 116        4PY         0.00000   0.00002  -0.01087   0.00034   0.00431
 117        4PZ         0.00001   0.00001   0.00098  -0.00010  -0.00045
 118        5PX         0.00003   0.00017  -0.00321  -0.00087   0.00016
 119        5PY         0.00020  -0.00027   0.00471   0.00006   0.00034
 120        5PZ        -0.00011  -0.00004  -0.00042   0.00048   0.00029
                          11        12        13        14        15
                           O         O         O         O         O
     Eigenvalues --    -1.53415  -1.53185  -1.53144  -1.52452  -1.51998
   1 1   Ti 1S         -0.00634   0.00208   0.00021  -0.00071  -0.00011
   2        2S          0.01815  -0.00502  -0.00017   0.00102  -0.00009
   3        3S         -0.00277  -0.00579  -0.00043  -0.00358   0.00055
   4        4PX         0.35050  -0.33540   0.02964  -0.16202   0.00217
   5        4PY         0.76600  -0.33568   0.13311  -0.08615  -0.00016
   6        4PZ        -0.10754   0.07274   0.98898   0.01051  -0.00210
   7        5PX         0.00680   0.00345   0.00061   0.00467  -0.00033
   8        5PY         0.00769  -0.00368   0.00173  -0.00138  -0.00013
   9        5PZ        -0.00023   0.00048   0.00208   0.00018   0.00053
  10        6PX        -0.00083  -0.00079   0.00010  -0.00124  -0.00002
  11        6PY        -0.00296   0.00221  -0.00064  -0.00035  -0.00010
  12        6PZ         0.00001  -0.00002   0.00108  -0.00007   0.00030
  13        7D 0        0.00610  -0.00212   0.00121   0.00003   0.00000
  14        7D+1       -0.00006  -0.00024   0.00192  -0.00021   0.00003
  15        7D-1        0.00163  -0.00069  -0.00430  -0.00005   0.00001
  16        7D+2        0.00391  -0.00202   0.00083  -0.00117   0.00004
  17        7D-2        0.00086   0.00169  -0.00030   0.00111  -0.00003
  18        8D 0       -0.00021  -0.00048  -0.00026  -0.00058   0.00015
  19        8D+1       -0.00013  -0.00039   0.00127  -0.00018  -0.00075
  20        8D-1       -0.00004   0.00012  -0.00084   0.00003  -0.00005
  21        8D+2       -0.00153  -0.00415  -0.00002  -0.00373   0.00014
  22        8D-2       -0.00430   0.00007  -0.00131  -0.00072   0.00030
  23 2   Ti 1S          0.00003   0.00306   0.00004   0.00220  -0.00013
  24        2S          0.00158  -0.00914   0.00026  -0.00743   0.00017
  25        3S          0.00293   0.00070   0.00120  -0.00095  -0.00098
  26        4PX        -0.23819  -0.04731  -0.00300  -0.21487   0.00346
  27        4PY        -0.00875  -0.05490   0.00755   0.00899   0.00855
  28        4PZ        -0.00158   0.00157   0.02084  -0.00203   0.03046
  29        5PX         0.00485   0.00121   0.00036   0.00478   0.00016
  30        5PY        -0.00480   0.00602  -0.00163  -0.00442  -0.00129
  31        5PZ         0.00005   0.00041   0.00128  -0.00013   0.00109
  32        6PX         0.00211   0.00250  -0.00024   0.00123  -0.00017
  33        6PY         0.00286  -0.00391   0.00077   0.00297   0.00055
  34        6PZ        -0.00014  -0.00031  -0.00153  -0.00002  -0.00131
  35        7D 0        0.00060  -0.00262   0.00007  -0.00209   0.00006
  36        7D+1       -0.00006  -0.00004   0.00079  -0.00001  -0.00074
  37        7D-1        0.00001   0.00002   0.00003   0.00004  -0.00007
  38        7D+2       -0.00110   0.00344  -0.00026   0.00320   0.00011
  39        7D-2        0.00175   0.00166   0.00013   0.00061  -0.00015
  40        8D 0        0.00031   0.00284  -0.00024   0.00155   0.00015
  41        8D+1       -0.00062  -0.00083   0.00243  -0.00019  -0.00261
  42        8D-1       -0.00074  -0.00057   0.00009   0.00035   0.00006
  43        8D+2        0.00248   0.01175   0.00168   0.00746  -0.00179
  44        8D-2       -0.00537   0.00536  -0.00150   0.01057   0.00121
  45 3   Ti 1S          0.00061  -0.00318   0.00023   0.00627  -0.00049
  46        2S          0.00586   0.01963  -0.00045  -0.02020   0.00121
  47        3S          0.00317   0.00351  -0.00066  -0.00027   0.00051
  48        4PX         0.39269   0.64022  -0.01189   0.53922   0.01402
  49        4PY        -0.18397  -0.55287   0.01461   0.77323   0.09887
  50        4PZ         0.01354   0.04860  -0.00004  -0.08375   0.99306
  51        5PX         0.00415  -0.00018  -0.00027   0.00419   0.00046
  52        5PY        -0.00010  -0.00236  -0.00004   0.00873   0.00140
  53        5PZ        -0.00022  -0.00033   0.00040  -0.00048   0.00294
  54        6PX        -0.00163  -0.00053  -0.00004  -0.00060   0.00005
  55        6PY        -0.00014   0.00281  -0.00021  -0.00331  -0.00046
  56        6PZ         0.00009   0.00018   0.00036   0.00012   0.00062
  57        7D 0        0.00150   0.00547  -0.00017  -0.00695  -0.00103
  58        7D+1       -0.00100  -0.00187   0.00000  -0.00048  -0.00165
  59        7D-1        0.00074   0.00195  -0.00005  -0.00171   0.00496
  60        7D+2        0.00303   0.00572  -0.00016  -0.00462  -0.00071
  61        7D-2        0.00671   0.01219  -0.00024   0.00289   0.00055
  62        8D 0       -0.00065  -0.00159  -0.00008   0.00002   0.00017
  63        8D+1        0.00004   0.00006   0.00061  -0.00017  -0.00119
  64        8D-1       -0.00023  -0.00053   0.00006   0.00011   0.00083
  65        8D+2       -0.00070  -0.00494  -0.00000  -0.00140  -0.00005
  66        8D-2       -0.00065  -0.00335  -0.00020   0.00309   0.00102
  67 4   O  1S         -0.00448   0.00037  -0.00014  -0.01953  -0.00073
  68        2S          0.01014  -0.00094   0.00046   0.04317   0.00151
  69        3S          0.00424   0.00031  -0.00051   0.02582   0.00148
  70        4PX         0.00353   0.00359  -0.00003  -0.01407  -0.00071
  71        4PY        -0.00747  -0.00262  -0.00015  -0.02830  -0.00063
  72        4PZ         0.00039   0.00023   0.00006   0.00140   0.00631
  73        5PX         0.00090   0.00679  -0.00006   0.00862   0.00036
  74        5PY        -0.00028   0.00063   0.00056   0.00501   0.00009
  75        5PZ         0.00004   0.00014   0.00040  -0.00028   0.00014
  76 5   O  1S         -0.00965  -0.01499   0.00037  -0.00261   0.00217
  77        2S          0.02034   0.03225  -0.00087   0.00594  -0.00484
  78        3S          0.01531   0.02108  -0.00015   0.00101  -0.00291
  79        4PX        -0.00789  -0.01864   0.00025   0.00371   0.00339
  80        4PY         0.01204   0.01654  -0.00040   0.00801  -0.00232
  81        4PZ         0.00147   0.00259   0.00002  -0.00013   0.00502
  82        5PX         0.00212   0.00690   0.00053   0.00014  -0.00142
  83        5PY         0.00172  -0.00186   0.00001  -0.00013   0.00053
  84        5PZ        -0.00022  -0.00046   0.00027   0.00015   0.00130
  85 6   O  1S         -0.00030  -0.00046  -0.00218   0.00042  -0.00010
  86        2S          0.00042   0.00094   0.00492  -0.00040   0.00027
  87        3S          0.00229   0.00022   0.00283  -0.00315  -0.00011
  88        4PX         0.00774   0.00186   0.00374   0.00286  -0.00027
  89        4PY         0.00397  -0.00217  -0.00229   0.00055  -0.00016
  90        4PZ        -0.00074   0.00025   0.00486   0.00002   0.00008
  91        5PX        -0.00340  -0.00401  -0.00162  -0.00327   0.00066
  92        5PY         0.00146   0.00067   0.00055   0.00255  -0.00002
  93        5PZ         0.00032   0.00013   0.00120   0.00004   0.00021
  94 7   O  1S          0.01551  -0.00691   0.00131   0.00080   0.00004
  95        2S         -0.03470   0.01545  -0.00284  -0.00190  -0.00022
  96        3S         -0.02019   0.00999  -0.00234   0.00135   0.00058
  97        4PX        -0.00971   0.00789  -0.00121   0.00731   0.00003
  98        4PY        -0.02181   0.01056  -0.00157   0.00008  -0.00006
  99        4PZ         0.00069  -0.00027   0.00523  -0.00008   0.00012
 100        5PX         0.00392  -0.00662   0.00048  -0.00623   0.00013
 101        5PY         0.00271  -0.00490   0.00029  -0.00259   0.00055
 102        5PZ        -0.00028   0.00013   0.00023   0.00013   0.00053
 103 8   O  1S          0.01194  -0.00147   0.00086   0.00124  -0.00005
 104        2S         -0.02562   0.00317  -0.00166  -0.00282   0.00006
 105        3S         -0.01270   0.00047  -0.00171  -0.00192   0.00030
 106        4PX         0.01892  -0.00538   0.00140   0.00001  -0.00005
 107        4PY        -0.00966  -0.00166   0.00023  -0.00295   0.00008
 108        4PZ         0.00012   0.00060   0.01132   0.00022  -0.00003
 109        5PX        -0.00151  -0.00030  -0.00010  -0.00108   0.00004
 110        5PY         0.00177   0.00117  -0.00018   0.00124  -0.00001
 111        5PZ         0.00003   0.00021  -0.00119   0.00013   0.00009
 112 9   O  1S          0.01327   0.02819  -0.00063  -0.00823   0.00013
 113        2S         -0.02848  -0.06080   0.00140   0.01718  -0.00048
 114        3S         -0.01319  -0.02835   0.00042   0.00914   0.00067
 115        4PX        -0.01239  -0.02875   0.00066   0.01638  -0.00002
 116        4PY         0.01788   0.03615  -0.00077  -0.00331   0.00140
 117        4PZ        -0.00164  -0.00324   0.00008   0.00018   0.01163
 118        5PX         0.00180   0.00513  -0.00007   0.00029   0.00006
 119        5PY        -0.00229  -0.00546   0.00011   0.00011  -0.00032
 120        5PZ         0.00027   0.00047   0.00006  -0.00009  -0.00102
                          16        17        18        19        20
                           O         O         O         O         O
     Eigenvalues --    -1.50179  -1.49528  -1.49455  -0.87317  -0.85649
   1 1   Ti 1S          0.00191  -0.00023  -0.00025   0.06234   0.01830
   2        2S         -0.00842   0.00031  -0.00157  -0.09420  -0.02477
   3        3S          0.00479   0.00097   0.00245  -0.04875   0.02692
   4        4PX         0.22287  -0.00529   0.00642   0.06023   0.02927
   5        4PY         0.06502  -0.00020  -0.04762   0.06911   0.08876
   6        4PZ        -0.01128  -0.02210  -0.00282  -0.01130  -0.00082
   7        5PX        -0.00683  -0.00048  -0.00036   0.02137  -0.02003
   8        5PY         0.00259   0.00008  -0.00810   0.00372  -0.01641
   9        5PZ        -0.00053   0.00015  -0.00001   0.00122   0.00052
  10        6PX         0.00106  -0.00001  -0.00029   0.00148   0.00286
  11        6PY        -0.00077  -0.00015   0.00432   0.00003   0.00196
  12        6PZ         0.00032   0.00122   0.00009  -0.00057  -0.00014
  13        7D 0       -0.00262   0.00012  -0.00044  -0.04535  -0.01117
  14        7D+1        0.00007  -0.00095  -0.00007  -0.00265  -0.00001
  15        7D-1       -0.00005  -0.00005  -0.00002  -0.00179  -0.00320
  16        7D+2        0.00381  -0.00018   0.00044   0.00322  -0.00943
  17        7D-2       -0.00111   0.00009  -0.00178  -0.02273   0.04830
  18        8D 0        0.00256   0.00011   0.00080  -0.01237  -0.00521
  19        8D+1        0.00042  -0.00150   0.00038  -0.00039   0.00011
  20        8D-1       -0.00013  -0.00011  -0.00084   0.00083  -0.00061
  21        8D+2        0.00615   0.00002  -0.00072  -0.00340   0.00013
  22        8D-2        0.00190   0.00019   0.00498  -0.02686   0.00230
  23 2   Ti 1S          0.00102   0.00004  -0.00157   0.08966   0.00981
  24        2S         -0.00283  -0.00011   0.00406  -0.12005  -0.01027
  25        3S          0.00021  -0.00008   0.00289   0.05538   0.00741
  26        4PX         0.90667  -0.01682  -0.09037  -0.01488  -0.10026
  27        4PY         0.08557  -0.04812   0.98229   0.02640  -0.00147
  28        4PZ         0.02154   0.99588   0.04625   0.00042  -0.00348
  29        5PX        -0.01098  -0.00136  -0.00741   0.00215  -0.04069
  30        5PY        -0.00467  -0.00051   0.01195  -0.00268  -0.01106
  31        5PZ         0.00143   0.00843   0.00057  -0.00007   0.00072
  32        6PX        -0.00181  -0.00035  -0.00033  -0.00012  -0.01110
  33        6PY         0.00072   0.00021  -0.00736   0.00061   0.00082
  34        6PZ        -0.00062  -0.00407  -0.00024  -0.00002   0.00051
  35        7D 0       -0.00091  -0.00003   0.00171  -0.05429  -0.00500
  36        7D+1        0.00001   0.00048  -0.00005   0.00414  -0.00122
  37        7D-1       -0.00009  -0.00055  -0.00007   0.00210  -0.00383
  38        7D+2        0.00135  -0.00003   0.00044   0.01654   0.02657
  39        7D-2       -0.00252  -0.00007   0.00120  -0.00281  -0.09058
  40        8D 0       -0.00010  -0.00001   0.00052  -0.02698  -0.00290
  41        8D+1       -0.00014   0.00025  -0.00013   0.00102   0.00030
  42        8D-1       -0.00007  -0.00034  -0.00006  -0.00067  -0.00156
  43        8D+2        0.00241   0.00000   0.00085   0.01634   0.00401
  44        8D-2       -0.00171  -0.00013   0.00068  -0.02376  -0.00836
  45 3   Ti 1S         -0.00113   0.00028  -0.00001   0.06184  -0.04675
  46        2S          0.00794  -0.00034   0.00269  -0.09436   0.05625
  47        3S         -0.00535  -0.00089  -0.00514  -0.04842  -0.03131
  48        4PX         0.31073  -0.00668   0.01637  -0.06258  -0.00133
  49        4PY         0.09964  -0.00078  -0.05710  -0.06628  -0.02332
  50        4PZ        -0.01981  -0.03153  -0.00522   0.01281  -0.01020
  51        5PX        -0.00687  -0.00046  -0.00294  -0.02026  -0.02894
  52        5PY         0.00065  -0.00000  -0.00775  -0.00381   0.00455
  53        5PZ        -0.00072   0.00008  -0.00007  -0.00131   0.00215
  54        6PX         0.00094   0.00001  -0.00029  -0.00155   0.00313
  55        6PY        -0.00015  -0.00013   0.00413  -0.00037  -0.00251
  56        6PZ         0.00039   0.00124   0.00012   0.00062  -0.00056
  57        7D 0        0.00215  -0.00012   0.00060  -0.04460   0.02814
  58        7D+1       -0.00029   0.00094   0.00003  -0.00247   0.00064
  59        7D-1       -0.00002  -0.00004   0.00005  -0.00250  -0.00069
  60        7D+2       -0.00416   0.00018  -0.00023   0.00380  -0.01168
  61        7D-2        0.00271  -0.00013   0.00196  -0.02447   0.07903
  62        8D 0       -0.00311  -0.00014  -0.00038  -0.01165   0.01197
  63        8D+1       -0.00060   0.00162  -0.00037  -0.00031   0.00104
  64        8D-1        0.00029  -0.00013   0.00078   0.00077  -0.00110
  65        8D+2       -0.00633   0.00005  -0.00121  -0.00304  -0.00592
  66        8D-2       -0.00432  -0.00030  -0.00532  -0.02538   0.01547
  67 4   O  1S          0.00535   0.00053  -0.00810  -0.10225  -0.06296
  68        2S         -0.01012  -0.00118   0.01754   0.21708   0.13330
  69        3S         -0.01253  -0.00079   0.01399   0.19623   0.13546
  70        4PX        -0.01830  -0.00088   0.01564   0.00903   0.01416
  71        4PY         0.00524   0.00051  -0.00644  -0.03901  -0.02746
  72        4PZ        -0.00006   0.00427   0.00057   0.00182   0.00186
  73        5PX         0.00822   0.00015  -0.00312  -0.00806  -0.00135
  74        5PY         0.00223  -0.00013   0.00108  -0.01759  -0.01045
  75        5PZ        -0.00017   0.00072   0.00005   0.00083   0.00111
  76 5   O  1S          0.00736   0.00006   0.01064  -0.10751   0.14414
  77        2S         -0.01555  -0.00011  -0.02347   0.22833  -0.30170
  78        3S         -0.01265  -0.00021  -0.01599   0.20780  -0.30547
  79        4PX        -0.01314  -0.00013  -0.01601  -0.00910   0.01546
  80        4PY        -0.01277  -0.00035  -0.01371   0.04172  -0.05104
  81        4PZ        -0.00064   0.00519  -0.00093   0.00403  -0.00521
  82        5PX         0.00814   0.00015   0.00491   0.00521   0.00107
  83        5PY         0.00181   0.00003   0.00323   0.01719  -0.02589
  84        5PZ        -0.00011   0.00015   0.00009  -0.00036  -0.00183
  85 6   O  1S         -0.00657  -0.00005  -0.00906  -0.09920   0.05956
  86        2S          0.01340   0.00009   0.01947   0.21192  -0.12487
  87        3S          0.01310   0.00025   0.01632   0.18768  -0.13071
  88        4PX        -0.01033  -0.00010  -0.01353   0.00897   0.00041
  89        4PY        -0.01141  -0.00030  -0.01222  -0.03933   0.02252
  90        4PZ        -0.00059   0.00428  -0.00084  -0.00383   0.00212
  91        5PX         0.00485   0.00008   0.00360  -0.00537  -0.00591
  92        5PY         0.00094  -0.00001   0.00263  -0.01400   0.01013
  93        5PZ        -0.00015   0.00046   0.00012   0.00069   0.00158
  94 7   O  1S         -0.01061  -0.00060   0.01162  -0.12361  -0.15722
  95        2S          0.02240   0.00137  -0.02589   0.26113   0.32697
  96        3S          0.01530   0.00070  -0.01533   0.24324   0.34465
  97        4PX        -0.01979  -0.00101   0.02002  -0.01071  -0.01144
  98        4PY         0.01268   0.00051  -0.00919   0.04641   0.05786
  99        4PZ        -0.00020   0.00604   0.00069  -0.00169  -0.00250
 100        5PX         0.00892   0.00026  -0.00525   0.00550  -0.00385
 101        5PY         0.00070  -0.00014   0.00129   0.02395   0.03388
 102        5PZ        -0.00006   0.00023   0.00004  -0.00105  -0.00172
 103 8   O  1S         -0.00316   0.00015  -0.00143  -0.06449  -0.00203
 104        2S          0.00704  -0.00038   0.00237   0.14315   0.00390
 105        3S          0.00506   0.00013   0.00376   0.10392   0.00332
 106        4PX        -0.00199   0.00010  -0.00133  -0.01866  -0.00317
 107        4PY         0.00565  -0.00025   0.00166   0.02043  -0.00828
 108        4PZ        -0.00041  -0.00028  -0.00011  -0.00220   0.00085
 109        5PX         0.00242   0.00010  -0.00128  -0.00375  -0.00385
 110        5PY        -0.00224   0.00016   0.00027  -0.00181   0.00034
 111        5PZ        -0.00032   0.00029  -0.00061   0.00179  -0.00003
 112 9   O  1S          0.00435  -0.00021   0.00193  -0.06177   0.07136
 113        2S         -0.00955   0.00052  -0.00341   0.13743  -0.15420
 114        3S         -0.00695  -0.00018  -0.00466   0.09792  -0.13331
 115        4PX        -0.00246   0.00014  -0.00192   0.01864  -0.01522
 116        4PY         0.00785  -0.00034   0.00232  -0.01988   0.03048
 117        4PZ        -0.00072  -0.00039  -0.00024   0.00262  -0.00357
 118        5PX         0.00311   0.00011  -0.00126   0.00231  -0.00305
 119        5PY        -0.00232   0.00021  -0.00040   0.00182   0.00376
 120        5PZ        -0.00053   0.00039  -0.00061  -0.00199   0.00108
                          21        22        23        24        25
                           O         O         O         O         O
     Eigenvalues --    -0.85442  -0.83823  -0.81701  -0.80868  -0.36218
   1 1   Ti 1S          0.08137   0.00117   0.03606  -0.00951   0.00755
   2        2S         -0.09736   0.00029  -0.04332   0.00925  -0.00799
   3        3S          0.06907  -0.01524   0.01066  -0.01910  -0.10107
   4        4PX        -0.00449  -0.03647  -0.17642   0.11938   0.01095
   5        4PY         0.04467  -0.05448   0.16411  -0.09157  -0.03026
   6        4PZ        -0.01404  -0.00212  -0.00431   0.00062   0.00071
   7        5PX        -0.05817   0.00953   0.00491   0.00086   0.08138
   8        5PY        -0.00896   0.00612  -0.02221   0.01427   0.02862
   9        5PZ         0.00353   0.00022   0.00176  -0.00085  -0.00260
  10        6PX         0.00721  -0.00036  -0.00045  -0.00121   0.00233
  11        6PY        -0.00243  -0.00232  -0.00005   0.00300  -0.00204
  12        6PZ        -0.00094  -0.00016  -0.00028  -0.00011  -0.00037
  13        7D 0       -0.04946  -0.00104  -0.02552   0.00690  -0.00968
  14        7D+1       -0.00101   0.00044   0.00893  -0.00631  -0.00233
  15        7D-1       -0.00117   0.00198  -0.00844   0.00510   0.00585
  16        7D+2        0.00291   0.00730  -0.02130   0.01274   0.18447
  17        7D-2       -0.08392  -0.05965  -0.05136   0.02628  -0.02768
  18        8D 0       -0.02052   0.00062  -0.00646  -0.00236   0.00057
  19        8D+1       -0.00161  -0.00052   0.00044  -0.00091   0.00000
  20        8D-1        0.00119   0.00108  -0.00151   0.00170   0.00166
  21        8D+2        0.00793  -0.00208  -0.00208  -0.00110   0.03451
  22        8D-2       -0.01794  -0.00221  -0.00929  -0.00152  -0.02179
  23 2   Ti 1S         -0.00648  -0.00642  -0.04736  -0.01163   0.16277
  24        2S          0.00799   0.00640   0.04938   0.01231  -0.11848
  25        3S         -0.00453  -0.00269  -0.02248  -0.00447   0.09688
  26        4PX        -0.13151   0.09437   0.02083  -0.11788   0.00272
  27        4PY        -0.05389  -0.16613   0.02373  -0.05838  -0.00311
  28        4PZ        -0.00643  -0.00109   0.00153  -0.00663  -0.00017
  29        5PX        -0.09865   0.01212  -0.00818   0.04895  -0.00350
  30        5PY        -0.01650   0.03862  -0.00575   0.01187   0.01295
  31        5PZ         0.00144  -0.00055  -0.00038   0.00256   0.00020
  32        6PX        -0.02538   0.00593  -0.00112   0.00650   0.00384
  33        6PY         0.00233  -0.00004   0.00137  -0.00653  -0.00305
  34        6PZ         0.00128   0.00011  -0.00006  -0.00030   0.00012
  35        7D 0        0.00389   0.00320   0.02569   0.00649  -0.16351
  36        7D+1        0.00019  -0.00015  -0.00276  -0.00078   0.01043
  37        7D-1        0.00148  -0.00069  -0.00243  -0.00054  -0.00260
  38        7D+2       -0.01183   0.00329   0.00145  -0.00048   0.13429
  39        7D-2        0.03451  -0.00881  -0.02231  -0.00514  -0.10641
  40        8D 0        0.00162   0.00125   0.01967   0.00426  -0.03619
  41        8D+1       -0.00018   0.00007  -0.00165  -0.00044   0.00176
  42        8D-1        0.00078  -0.00062  -0.00290  -0.00051  -0.00176
  43        8D+2       -0.00112   0.00089   0.00495   0.00025   0.11297
  44        8D-2        0.00667  -0.00565  -0.00279   0.00141   0.00285
  45 3   Ti 1S         -0.06993   0.01585   0.03268   0.02711   0.01165
  46        2S          0.08699  -0.02192  -0.04012  -0.03021  -0.01051
  47        3S         -0.06429   0.01782   0.00351   0.02241  -0.09399
  48        4PX         0.02547  -0.02812   0.11721   0.19221  -0.01251
  49        4PY         0.09834  -0.11344  -0.10126  -0.14255   0.04159
  50        4PZ        -0.01209   0.00042   0.00639   0.00539  -0.00131
  51        5PX        -0.05346   0.01488  -0.00362  -0.00026  -0.07771
  52        5PY        -0.01663   0.01145   0.01406   0.02171  -0.02830
  53        5PZ         0.00292  -0.00048  -0.00175  -0.00199   0.00277
  54        6PX         0.00702  -0.00115   0.00076  -0.00120  -0.00468
  55        6PY        -0.00063  -0.00270  -0.00087   0.00269   0.00356
  56        6PZ        -0.00078   0.00001   0.00043   0.00008   0.00024
  57        7D 0        0.04219  -0.00972  -0.02243  -0.01863  -0.01108
  58        7D+1        0.00062  -0.00015   0.00635   0.01080  -0.00207
  59        7D-1        0.00411  -0.00456  -0.00602  -0.00885   0.01081
  60        7D+2        0.00524  -0.01786  -0.01138  -0.01824   0.21157
  61        7D-2        0.01919   0.06793  -0.05012  -0.05921  -0.04012
  62        8D 0        0.01743  -0.00562  -0.00764  -0.00155  -0.00237
  63        8D+1        0.00086   0.00050   0.00006   0.00105   0.00028
  64        8D-1       -0.00022  -0.00138  -0.00076  -0.00222   0.00202
  65        8D+2       -0.00628   0.00400  -0.00232   0.00047   0.04280
  66        8D-2        0.01138  -0.00196  -0.01033  -0.00364  -0.02066
  67 4   O  1S          0.11008  -0.16940   0.01987   0.04894   0.01563
  68        2S         -0.22777   0.34920  -0.04256  -0.10145  -0.03177
  69        3S         -0.23920   0.38083  -0.03971  -0.11239  -0.05541
  70        4PX         0.00035   0.00066  -0.01202  -0.01266   0.28832
  71        4PY         0.03771  -0.05568   0.01195   0.02433  -0.15801
  72        4PZ        -0.00181   0.00339  -0.00079  -0.00121   0.00240
  73        5PX        -0.00317   0.00754   0.00437   0.00004   0.13674
  74        5PY         0.02449  -0.04005   0.00523   0.01180  -0.05614
  75        5PZ        -0.00116   0.00249   0.00024  -0.00037   0.00124
  76 5   O  1S          0.06011   0.09219   0.04072   0.10926   0.01820
  77        2S         -0.12517  -0.18957  -0.08334  -0.22183  -0.03646
  78        3S         -0.12305  -0.20942  -0.09178  -0.25580  -0.07549
  79        4PX         0.01646   0.00789  -0.01440  -0.00530  -0.02915
  80        4PY        -0.01839  -0.02548  -0.01308  -0.02693   0.16595
  81        4PZ        -0.00228  -0.00276   0.00061  -0.00020   0.00945
  82        5PX        -0.00660   0.00748   0.01413   0.00909   0.00681
  83        5PY        -0.01256  -0.02110  -0.00904  -0.02737   0.06345
  84        5PZ         0.00021  -0.00267  -0.00204  -0.00310   0.00312
  85 6   O  1S         -0.14507  -0.06727   0.10672  -0.08797   0.01573
  86        2S          0.30393   0.13836  -0.21845   0.17923  -0.03155
  87        3S          0.30207   0.15210  -0.24316   0.20373  -0.06656
  88        4PX         0.02414   0.01014   0.01066   0.00257   0.00035
  89        4PY        -0.04880  -0.01748   0.02907  -0.02032  -0.14019
  90        4PZ        -0.00544  -0.00225   0.00048  -0.00074  -0.00805
  91        5PX        -0.00366   0.00140  -0.01781   0.00299  -0.02122
  92        5PY        -0.02567  -0.01700   0.02420  -0.02145  -0.05326
  93        5PZ        -0.00127  -0.00167   0.00343  -0.00200  -0.00289
  94 7   O  1S         -0.00354   0.12972   0.01550  -0.03131   0.01860
  95        2S          0.00503  -0.26626  -0.03353   0.06411  -0.03705
  96        3S          0.00959  -0.29787  -0.02884   0.07593  -0.06631
  97        4PX         0.01092   0.00143   0.01259  -0.00403  -0.24661
  98        4PY        -0.00300  -0.04113  -0.01215   0.01426   0.18845
  99        4PZ         0.00046   0.00209   0.00039  -0.00040   0.00085
 100        5PX        -0.00371   0.00650  -0.00415  -0.00120  -0.11478
 101        5PY         0.00263  -0.03242  -0.00460   0.00812   0.06535
 102        5PZ         0.00040   0.00142  -0.00042  -0.00022   0.00050
 103 8   O  1S         -0.11915  -0.03092  -0.17373   0.09672  -0.00603
 104        2S          0.25652   0.06720   0.36877  -0.20352   0.01709
 105        3S          0.22856   0.06203   0.37154  -0.21702   0.00788
 106        4PX        -0.02662  -0.00370  -0.02459   0.01125   0.15449
 107        4PY         0.04038   0.01684   0.03720  -0.01937   0.11366
 108        4PZ        -0.00384  -0.00160  -0.00174   0.00049  -0.00452
 109        5PX        -0.00697   0.00400  -0.01168   0.00659   0.07082
 110        5PY         0.00848   0.00435   0.01974  -0.01242   0.04339
 111        5PZ         0.00123   0.00037  -0.00126   0.00181  -0.00037
 112 9   O  1S          0.07776   0.00547  -0.12510  -0.16766  -0.00672
 113        2S         -0.16738  -0.01246   0.26649   0.35446   0.01885
 114        3S         -0.14629  -0.01242   0.26153   0.36636   0.01027
 115        4PX        -0.02049   0.00289   0.01855   0.02098  -0.17622
 116        4PY         0.01970   0.01477  -0.02979  -0.03689  -0.13901
 117        4PZ        -0.00229  -0.00176   0.00220   0.00198   0.00803
 118        5PX        -0.00699   0.00717   0.00768   0.01048  -0.07829
 119        5PY         0.00452   0.00386  -0.01329  -0.01974  -0.05224
 120        5PZ         0.00092   0.00016   0.00047   0.00242   0.00178
                          26        27        28        29        30
                           O         O         O         O         O
     Eigenvalues --    -0.34518  -0.34238  -0.33763  -0.32665  -0.31197
   1 1   Ti 1S         -0.09052   0.02029  -0.11334  -0.04296   0.01330
   2        2S          0.07041  -0.02106   0.09051   0.03544  -0.01324
   3        3S          0.02586  -0.02152   0.05678   0.02116  -0.04255
   4        4PX        -0.02112   0.07272  -0.05260   0.02359  -0.01205
   5        4PY        -0.00108   0.07114  -0.01214  -0.03196   0.01510
   6        4PZ         0.00321  -0.00429   0.00370  -0.00098  -0.01303
   7        5PX         0.04796   0.01926   0.02207   0.06543   0.00391
   8        5PY        -0.04176  -0.04003  -0.02169  -0.01645   0.00262
   9        5PZ         0.00169   0.00489   0.00372   0.00528   0.01024
  10        6PX        -0.00158  -0.00358  -0.01358   0.00836   0.00180
  11        6PY         0.00049   0.00131  -0.00429  -0.02037   0.00451
  12        6PZ         0.00051  -0.00034   0.00124   0.00293   0.00167
  13        7D 0        0.11262  -0.01160   0.13579   0.08013  -0.02425
  14        7D+1        0.01438  -0.01216   0.02321  -0.00421   0.18838
  15        7D-1       -0.01164  -0.02196  -0.00919   0.00120  -0.18028
  16        7D+2        0.06192  -0.07983  -0.13210   0.19991   0.01318
  17        7D-2        0.13557   0.27574   0.08713   0.18955  -0.05269
  18        8D 0        0.01449  -0.00486   0.01644  -0.00272   0.00103
  19        8D+1        0.00489  -0.00213   0.00465  -0.00029   0.05894
  20        8D-1       -0.00598  -0.00388  -0.00289  -0.00126  -0.06042
  21        8D+2        0.00367  -0.02110  -0.05190   0.05194   0.00473
  22        8D-2        0.01855   0.01524   0.00954   0.00143   0.00160
  23 2   Ti 1S          0.11030   0.01149  -0.00764   0.00445   0.01594
  24        2S         -0.07510  -0.00918   0.01012  -0.00237  -0.01281
  25        3S          0.04100  -0.01107   0.00493  -0.00207   0.03475
  26        4PX        -0.00402   0.05716   0.06201  -0.14663   0.00043
  27        4PY         0.02919  -0.08483  -0.06285  -0.04021  -0.00214
  28        4PZ         0.00178  -0.00263  -0.00339  -0.01289  -0.00528
  29        5PX        -0.00669   0.02730   0.02954   0.08839   0.00026
  30        5PY        -0.01718   0.07278   0.06982   0.05402   0.00207
  31        5PZ        -0.00030   0.00178   0.00198   0.00614   0.00337
  32        6PX        -0.00251   0.01181   0.02022  -0.03300  -0.00067
  33        6PY        -0.00107  -0.00177  -0.00075   0.02965   0.00009
  34        6PZ         0.00053  -0.00091  -0.00086  -0.00681  -0.00244
  35        7D 0       -0.11309  -0.00246   0.00706  -0.00466  -0.02599
  36        7D+1        0.01701   0.00968  -0.00785  -0.00074  -0.09988
  37        7D-1        0.02484   0.01065  -0.00641  -0.00085  -0.10958
  38        7D+2       -0.13971   0.08653  -0.12498   0.00032  -0.02303
  39        7D-2        0.16121   0.20245  -0.16293  -0.02566   0.05972
  40        8D 0       -0.02595  -0.00435  -0.00076  -0.00199  -0.00738
  41        8D+1        0.00326   0.00447  -0.00405   0.00016  -0.04920
  42        8D-1        0.00483   0.00036   0.00128   0.00091  -0.05143
  43        8D+2       -0.01336   0.06160  -0.08098  -0.00726   0.00239
  44        8D-2        0.05318   0.01770  -0.01037   0.00754  -0.00535
  45 3   Ti 1S         -0.10486   0.07016  -0.03896   0.02478   0.01256
  46        2S          0.08135  -0.05687   0.03844  -0.02150  -0.01281
  47        3S          0.02483  -0.02890   0.06728  -0.00639  -0.04387
  48        4PX         0.01817  -0.04214   0.06824   0.02654   0.01321
  49        4PY        -0.02185  -0.00458   0.06811  -0.02049  -0.01330
  50        4PZ        -0.00283   0.00322  -0.00623  -0.00157   0.00425
  51        5PX        -0.06213   0.01757   0.03261   0.06231  -0.00342
  52        5PY         0.05197  -0.00676  -0.02156  -0.01536  -0.00374
  53        5PZ        -0.00438   0.00190   0.00378   0.00555  -0.00208
  54        6PX         0.00468  -0.00962  -0.00670   0.00927  -0.00124
  55        6PY         0.00138  -0.00320   0.00171  -0.01898  -0.00472
  56        6PZ        -0.00096   0.00104  -0.00073   0.00265  -0.00039
  57        7D 0        0.12726  -0.07825   0.04544  -0.05437  -0.02384
  58        7D+1        0.01482  -0.01638   0.01859   0.00680   0.17177
  59        7D-1       -0.01854   0.00497   0.02081  -0.00106  -0.14817
  60        7D+2        0.01028   0.10820   0.09261  -0.18400   0.01018
  61        7D-2        0.22429  -0.04465  -0.19183  -0.17346  -0.05992
  62        8D 0        0.01705  -0.01023   0.00200   0.00593   0.00171
  63        8D+1        0.00523  -0.00284   0.00344   0.00049   0.05482
  64        8D-1       -0.00768   0.00083   0.00330   0.00155  -0.05088
  65        8D+2       -0.01104   0.04073   0.02719  -0.05005   0.00320
  66        8D-2        0.02389  -0.00162  -0.00738  -0.00078   0.00140
  67 4   O  1S          0.00326   0.00110  -0.01397  -0.00403  -0.00385
  68        2S         -0.00777  -0.00583   0.02831   0.01266   0.00944
  69        3S         -0.00568  -0.00821   0.05230  -0.00437   0.00263
  70        4PX        -0.03120  -0.01691   0.32939  -0.10263  -0.00584
  71        4PY         0.01748  -0.08191   0.16733   0.17417   0.04244
  72        4PZ        -0.00616  -0.00161   0.01049   0.00951  -0.01183
  73        5PX        -0.00746   0.00248   0.16305  -0.05271  -0.00276
  74        5PY         0.00964  -0.03950   0.06897   0.09458   0.02358
  75        5PZ        -0.00244   0.00046   0.00496   0.00475  -0.00784
  76 5   O  1S         -0.00304   0.02055  -0.00071  -0.00009   0.00623
  77        2S          0.00835  -0.04256   0.00382   0.00371  -0.01431
  78        3S         -0.00034  -0.06187  -0.00435   0.00146  -0.00960
  79        4PX         0.40804  -0.09738  -0.09301  -0.17440   0.02771
  80        4PY         0.03459   0.25109  -0.07483  -0.11309   0.04165
  81        4PZ        -0.01633   0.00891   0.01565   0.02190   0.30279
  82        5PX         0.18630  -0.04033  -0.06034  -0.09209   0.01512
  83        5PY         0.01057   0.11050  -0.03680  -0.06980   0.02006
  84        5PZ        -0.00933   0.00391   0.00799   0.01268   0.14166
  85 6   O  1S          0.00149  -0.00195  -0.02615  -0.00463   0.00579
  86        2S         -0.00118   0.00179   0.05533   0.00740  -0.01389
  87        3S         -0.01147   0.00651   0.07984   0.00515  -0.00752
  88        4PX        -0.30782  -0.19077  -0.16774  -0.19420  -0.03897
  89        4PY        -0.06636  -0.05026   0.28338  -0.06956  -0.04153
  90        4PZ         0.00847   0.01977   0.01709   0.02591  -0.29039
  91        5PX        -0.13658  -0.10373  -0.06707  -0.09303  -0.02121
  92        5PY        -0.02261  -0.02904   0.12926  -0.04690  -0.02154
  93        5PZ         0.00536   0.00988   0.00842   0.01430  -0.13343
  94 7   O  1S         -0.00095   0.01318  -0.00479   0.00597  -0.00344
  95        2S          0.00007  -0.02897   0.01551  -0.01783   0.00842
  96        3S          0.00669  -0.04465   0.01464   0.00601   0.00171
  97        4PX        -0.05529   0.38461  -0.04882  -0.11910   0.01044
  98        4PY        -0.06747   0.16562  -0.15704   0.18644  -0.03634
  99        4PZ         0.00202   0.00803   0.00053   0.00949   0.02819
 100        5PX        -0.03906   0.18934  -0.01370  -0.06109   0.00467
 101        5PY        -0.03172   0.07631  -0.07575   0.10280  -0.02011
 102        5PZ         0.00033   0.00321   0.00177   0.00497   0.01711
 103 8   O  1S         -0.01880  -0.00852  -0.01540  -0.02113   0.00694
 104        2S          0.03355   0.01640   0.02823   0.04305  -0.01317
 105        3S          0.08217   0.02245   0.06591   0.07027  -0.02661
 106        4PX         0.14942  -0.04091   0.01381   0.32384  -0.06320
 107        4PY        -0.11561  -0.23261  -0.18672  -0.05397   0.09460
 108        4PZ         0.03741   0.02976   0.03789   0.03163   0.28279
 109        5PX         0.05549  -0.02288   0.00482   0.14149  -0.02932
 110        5PY        -0.03650  -0.09957  -0.06427  -0.01770   0.03942
 111        5PZ         0.01439   0.01445   0.01587   0.01535   0.12704
 112 9   O  1S         -0.02405   0.00860   0.00150   0.01802   0.00748
 113        2S          0.04327  -0.01616  -0.00407  -0.03751  -0.01416
 114        3S          0.10218  -0.03555   0.00721  -0.05694  -0.02886
 115        4PX        -0.13930  -0.01275  -0.08865   0.28370   0.06998
 116        4PY         0.19443  -0.11044  -0.16855  -0.02712  -0.09465
 117        4PZ        -0.05626   0.02265   0.01837   0.03036  -0.22570
 118        5PX        -0.04976  -0.00429  -0.03830   0.12296   0.03220
 119        5PY         0.06580  -0.03565  -0.07515  -0.00803  -0.03865
 120        5PZ        -0.02235   0.00954   0.00973   0.01491  -0.09900
                          31        32        33        34        35
                           O         O         O         O         O
     Eigenvalues --    -0.30850  -0.30434  -0.29555  -0.29463  -0.29203
   1 1   Ti 1S         -0.00719   0.01198  -0.08320   0.03122   0.09252
   2        2S          0.00397  -0.00916   0.05744  -0.02958  -0.06579
   3        3S          0.00698   0.00754  -0.07696  -0.07608   0.09060
   4        4PX        -0.00425  -0.00475  -0.04106  -0.04378   0.04313
[...]
  13         O                -1.531444          2.393996
  14         O                -1.524525          2.360054
  15         O                -1.519979          2.393152
  16         O                -1.501788          2.393486
  17         O                -1.495282          2.390412
  18         O                -1.494555          2.368984
  19         O                -0.873166          2.826983
  20         O                -0.856488          2.997067
  21         O                -0.854424          2.959115
  22         O                -0.838232          3.072810
  23         O                -0.817014          3.150125
  24         O                -0.808680          3.205466
  25         O                -0.362176          2.213442
  26         O                -0.345180          2.446635
  27         O                -0.342384          2.374216
  28         O                -0.337630          2.303982
  29         O                -0.326647          2.388527
  30         O                -0.311969          2.207058
  31         O                -0.308503          2.014402
  32         O                -0.304342          2.229606
  33         O                -0.295552          2.129657
  34         O                -0.294629          2.558100
  35         O                -0.292032          2.203564
  36         O                -0.260060          2.198931
  37         O                -0.246575          2.367837
  38         O                -0.243733          2.618141
  39         O                -0.237020          2.284748
  40         O                -0.235352          2.472536
  41         O                -0.230692          2.531838
  42         O                -0.199301          2.678569
  43         O                -0.150923          2.484510
  44         V                -0.069464          2.722376
  45         V                -0.060245          2.845771
  46         V                -0.058525          3.371973
  47         V                -0.044862          3.426680
  48         V                -0.014764          2.336740
  49         V                -0.010535          3.348596
  50         V                -0.005409          1.251517
  51         V                 0.004161          3.100942
  52         V                 0.008355          2.907348
  53         V                 0.011528          3.366921
  54         V                 0.013009          0.729122
  55         V                 0.014139          1.079357
  56         V                 0.017569          3.254972
  57         V                 0.022394          0.584289
  58         V                 0.024304          2.027160
  59         V                 0.028047          1.104110
  60         V                 0.028368          1.344901
  61         V                 0.033549          1.980247
  62         V                 0.036704          2.978619
  63         V                 0.045684          0.278659
  64         V                 0.048572          0.297005
  65         V                 0.055947          0.474222
  66         V                 0.098322          0.655073
  67         V                 0.103209          2.014364
  68         V                 0.116180          0.711791
  69         V                 0.129111          2.251039
  70         V                 0.130421          3.204422
  71         V                 0.132417          0.718920
  72         V                 0.134809          1.885606
  73         V                 0.156013          0.827449
  74         V                 0.163021          0.963650
  75         V                 0.175895          2.229889
  76         V                 0.199198          1.331905
  77         V                 0.205099          1.163133
  78         V                 0.257881          2.035966
  79         V                 0.323377          1.721220
  80         V                 0.329775          1.524677
  81         V                 0.349245          1.822208
  82         V                 0.352078          1.743239
  83         V                 0.355151          1.485973
  84         V                 0.362015          1.579738
  85         V                 0.372611          1.394384
  86         V                 0.389995          1.673195
  87         V                 0.409375          1.501860
  88         V                 0.434745          1.381269
  89         V                 0.436516          1.549918
  90         V                 0.469286          1.419580
  91         V                 0.504313          1.669842
  92         V                 0.516900          1.575804
  93         V                 0.561353          1.926079
  94         V                 0.707342          2.412371
  95         V                 0.749102          3.160791
  96         V                 0.771998          3.059460
  97         V                 0.775717          2.942665
  98         V                 0.795711          3.069755
  99         V                 0.815820          2.990077
 100         V                 0.818802          3.017441
 101         V                 0.833442          3.073460
 102         V                 0.857545          2.917059
 103         V                 0.870984          3.141304
 104         V                 0.910655          2.931064
 105         V                 0.918521          2.999707
 106         V                 0.927365          2.985113
 107         V                 0.934180          2.939537
 108         V                 1.003413          2.993963
 109         V                 1.078917          3.196209
 110         V                 1.083520          3.325429
 111         V                 1.108352          3.359038
 112         V                 1.374633          3.626141
 113         V                 1.430874          4.193584
 114         V                 1.577143          4.305796
 115         V                 1.725238          4.312482
 116         V                 1.765024          4.252116
 117         V                 1.978947          4.857089
 118         V                 4.160436          2.891846
 119         V                 9.483670          2.856794
 120         V                15.451479          3.820824
 Orbital energies and kinetic energies (beta):
                                 1                 2
   1         O               -19.072791         29.125490
   2         O               -19.071007         29.126327
   3         O               -19.066289         29.125765
   4         O               -19.064743         29.126149
   5         O               -19.064246         29.125997
   6         O               -19.063034         29.125435
   7         O                -2.409892          1.339767
   8         O                -2.399473          1.338556
   9         O                -2.348046          1.339067
  10         O                -1.539445          2.327917
  11         O                -1.532081          2.337003
  12         O                -1.530834          2.355339
  13         O                -1.529264          2.394303
  14         O                -1.522805          2.362495
  15         O                -1.518595          2.393444
  16         O                -1.485209          2.374541
  17         O                -1.470525          2.361487
  18         O                -1.450824          2.392169
  19         O                -0.873815          2.832847
  20         O                -0.857530          3.002505
  21         O                -0.854898          2.961213
  22         O                -0.839245          3.079098
  23         O                -0.817003          3.152326
  24         O                -0.808869          3.208057
  25         O                -0.360183          2.192412
  26         O                -0.343514          2.359091
  27         O                -0.342136          2.447997
  28         O                -0.337154          2.287292
  29         O                -0.326262          2.388518
  30         O                -0.311788          2.205393
  31         O                -0.307810          2.020581
  32         O                -0.304513          2.228557
  33         O                -0.295807          2.170825
  34         O                -0.293734          2.497074
  35         O                -0.292295          2.227477
  36         O                -0.259985          2.201441
  37         O                -0.247454          2.334780
  38         O                -0.240121          2.578476
  39         O                -0.238448          2.280301
  40         O                -0.235902          2.496163
  41         O                -0.231061          2.526764
  42         O                -0.199988          2.676665
  43         V                -0.070708          2.431606
  44         V                -0.061503          2.438206
  45         V                -0.057634          3.500272
  46         V                -0.044244          3.434594
  47         V                -0.021311          2.471855
  48         V                -0.011815          1.966319
  49         V                -0.005929          2.992946
  50         V                -0.004418          1.740469
  51         V                 0.005085          2.992805
  52         V                 0.011314          2.647324
  53         V                 0.013346          0.611071
  54         V                 0.015293          1.315595
  55         V                 0.016934          3.443668
  56         V                 0.022187          3.117370
  57         V                 0.023764          0.406265
  58         V                 0.026561          1.510485
  59         V                 0.028365          0.821675
  60         V                 0.035103          0.739866
  61         V                 0.036842          3.193979
  62         V                 0.046460          3.491835
  63         V                 0.047287          0.582606
  64         V                 0.048528          0.326014
  65         V                 0.055854          0.491769
  66         V                 0.105756          0.697030
  67         V                 0.114050          2.341035
  68         V                 0.116575          0.962498
  69         V                 0.131567          1.819321
  70         V                 0.136333          2.237279
  71         V                 0.140334          0.669428
  72         V                 0.140863          2.358976
  73         V                 0.156503          0.844102
  74         V                 0.163881          0.972428
  75         V                 0.181334          2.832885
  76         V                 0.204910          1.301590
  77         V                 0.206783          1.396380
  78         V                 0.260414          2.033895
  79         V                 0.331192          1.516067
  80         V                 0.346189          1.959809
  81         V                 0.350797          1.926661
  82         V                 0.353715          1.560559
  83         V                 0.355267          1.627635
  84         V                 0.362305          1.580514
  85         V                 0.373224          1.395919
  86         V                 0.392427          1.681203
  87         V                 0.410465          1.496150
  88         V                 0.435656          1.363972
  89         V                 0.439767          1.545819
  90         V                 0.469395          1.423965
  91         V                 0.506322          1.659807
  92         V                 0.523075          1.588118
  93         V                 0.565160          1.958184
  94         V                 0.707832          2.408004
  95         V                 0.749437          3.160618
  96         V                 0.773872          3.050762
  97         V                 0.775970          2.936524
  98         V                 0.795811          3.066405
  99         V                 0.815705          2.984526
 100         V                 0.818623          3.015188
 101         V                 0.833355          3.071126
 102         V                 0.857646          2.915337
 103         V                 0.871193          3.142299
 104         V                 0.910765          2.927657
 105         V                 0.918334          2.996200
 106         V                 0.927675          2.981557
 107         V                 0.934227          2.935722
 108         V                 1.003542          2.987439
 109         V                 1.079424          3.196582
 110         V                 1.083699          3.318928
 111         V                 1.108639          3.356276
 112         V                 1.374870          3.626189
 113         V                 1.430799          4.193326
 114         V                 1.577205          4.303241
 115         V                 1.725244          4.310439
 116         V                 1.765130          4.250264
 117         V                 1.978754          4.856923
 118         V                 4.161259          2.892525
 119         V                 9.482722          2.856745
 120         V                15.445338          3.821023
 Total kinetic energy from orbitals= 5.234310231570D+02
                          Isotropic Fermi Contact Couplings
        Atom                 a.u.       MegaHertz       Gauss      10(-4) cm-1
     1  Ti(47)             0.00000      -0.00014      -0.00005      -0.00005
     2  Ti(47)            -0.00000       0.00023       0.00008       0.00008
     3  Ti(47)             0.00000      -0.00013      -0.00005      -0.00004
     4  O(17)              0.00527      -3.19388      -1.13965      -1.06536
     5  O(17)             -0.00201       1.21998       0.43532       0.40694
     6  O(17)             -0.00028       0.16680       0.05952       0.05564
     7  O(17)              0.00311      -1.88800      -0.67369      -0.62977
     8  O(17)             -0.00063       0.38046       0.13576       0.12691
     9  O(17)             -0.00039       0.23624       0.08430       0.07880
 --------------------------------------------------------
       Center         ----  Spin Dipole Couplings  ----
                      3XX-RR        3YY-RR        3ZZ-RR
 --------------------------------------------------------
     1   Atom       -0.009855      0.000036      0.009819
     2   Atom       -0.290767     -0.088403      0.379169
     3   Atom       -0.004862      0.001039      0.003823
     4   Atom       -0.003291      0.021273     -0.017982
     5   Atom        0.017839      0.006942     -0.024780
     6   Atom        0.013315      0.008893     -0.022208
     7   Atom       -0.004389      0.029134     -0.024745
     8   Atom        0.033731     -0.021196     -0.012534
     9   Atom        0.029005     -0.018313     -0.010692
 --------------------------------------------------------
                        XY            XZ            YZ
 --------------------------------------------------------
     1   Atom        0.018113      0.004031     -0.001962
     2   Atom        0.010439     -0.036741     -0.018199
     3   Atom        0.011857      0.002963     -0.001187
     4   Atom       -0.009874     -0.006233      0.002815
     5   Atom        0.007343      0.000001     -0.001111
     6   Atom        0.002701      0.000368      0.000383
     7   Atom       -0.019582     -0.010098      0.005821
     8   Atom       -0.010575      0.016597      0.001446
     9   Atom       -0.009929      0.015586      0.000372
 --------------------------------------------------------


 ---------------------------------------------------------------------------------
              Anisotropic Spin Dipole Couplings in Principal Axis System
 ---------------------------------------------------------------------------------

       Atom             a.u.   MegaHertz   Gauss  10(-4) cm-1        Axes

              Baa    -0.0243     0.731     0.261     0.244  0.7901 -0.5995 -0.1280
     1 Ti(47) Bbb     0.0102    -0.307    -0.109    -0.102 -0.0412 -0.2602  0.9647
              Bcc     0.0141    -0.424    -0.151    -0.141  0.6116  0.7569  0.2303
 
              Baa    -0.2932     8.833     3.152     2.947  0.9975 -0.0461  0.0533
     2 Ti(47) Bbb    -0.0887     2.673     0.954     0.892  0.0439  0.9981  0.0423
              Bcc     0.3819   -11.506    -4.106    -3.838 -0.0551 -0.0398  0.9977
 
              Baa    -0.0146     0.441     0.157     0.147  0.7808 -0.6029 -0.1641
     3 Ti(47) Bbb     0.0042    -0.127    -0.045    -0.042  0.0409 -0.2127  0.9763
              Bcc     0.0104    -0.314    -0.112    -0.105  0.6235  0.7690  0.1414
 
              Baa    -0.0203     1.468     0.524     0.490  0.3550  0.0210  0.9346
     4 O(17)  Bbb    -0.0050     0.361     0.129     0.120  0.8684  0.3627 -0.3380
              Bcc     0.0253    -1.829    -0.653    -0.610 -0.3461  0.9317  0.1105
 
              Baa    -0.0248     1.796     0.641     0.599 -0.0063  0.0364  0.9993
     5 O(17)  Bbb     0.0033    -0.237    -0.085    -0.079 -0.4501  0.8923 -0.0353
              Bcc     0.0215    -1.559    -0.556    -0.520  0.8930  0.4500 -0.0108
 
              Baa    -0.0222     1.608     0.574     0.536 -0.0095 -0.0115  0.9999
     6 O(17)  Bbb     0.0076    -0.551    -0.197    -0.184 -0.4285  0.9035  0.0063
              Bcc     0.0146    -1.057    -0.377    -0.352  0.9035  0.4284  0.0135
 
              Baa    -0.0290     2.099     0.749     0.700  0.4111  0.0473  0.9103
     7 O(17)  Bbb    -0.0106     0.765     0.273     0.255  0.8035  0.4529 -0.3864
              Bcc     0.0396    -2.864    -1.022    -0.955 -0.4306  0.8903  0.1482
 
              Baa    -0.0254     1.841     0.657     0.614  0.2784  0.8471 -0.4527
     8 O(17)  Bbb    -0.0151     1.095     0.391     0.365 -0.1763  0.5084  0.8429
              Bcc     0.0406    -2.936    -1.048    -0.979  0.9442 -0.1548  0.2908
 
              Baa    -0.0220     1.593     0.568     0.531  0.2991  0.8469 -0.4396
     9 O(17)  Bbb    -0.0140     1.011     0.361     0.337 -0.1891  0.5042  0.8426
              Bcc     0.0360    -2.603    -0.929    -0.868  0.9353 -0.1689  0.3110
 

 ---------------------------------------------------------------------------------


 Test job not archived.
 1\1\GINC-POP-OS\SP\UB3LYP\LANL2DZ\O6Ti3(1-,2)\RHEINHEIMER\31-May-2021\
 0\\#t B3LYP/LANL2DZ # SCRF=(Solvent=Water) # Gfinput IOP(6/7=3) Pop=hi
 rshfeld Density Test # Units(Ang,Deg)\\3-tio2.pdb\\-1,2\Ti,-1,-1.641,1
 .281,-0.014\Ti,-1,1.10770513,1.41319636,-0.03946004\Ti,-1,3.85641027,1
 .54539273,-0.06492008\O,-1,2.59824652,0.24907049,0.26629683\O,-1,2.436
 26749,2.63074102,-0.53886675\O,-1,-0.25649358,0.15493477,0.47724339\O,
 -1,-0.28140306,2.5579148,-0.35239315\O,-1,-2.55712953,2.59862657,-0.32
 144578\O,-1,4.77709533,0.23630425,0.21797797\\Version=ES64L-G16RevA.03
 \State=2-A\HF=-626.1549807\S2=0.754212\S2-1=0.\S2A=0.750014\RMSD=5.282
 e-09\Dipole=-0.2463941,0.1467574,-0.0003389\Quadrupole=-2.9281034,-11.
 5619192,14.4900226,31.9995198,-4.7407262,9.1927633\PG=C01 [X(O6Ti3)]\\
 @


 WE HAVE SEEN THAT MAN ON THE AVERAGE DOES NOT LIVE ABOVE
 TWO-AND-TWENTY YEARS.  DURING THESE TWO AND TWENTY
 YEARS HE IS LIABLE TO TWO AND TWENTY THOUSAND EVILS,
 MANY OF WHICH ARE INCURABLE.  YET EVEN IN THIS DREADFUL STATE
 MEN STILL STRUT AND POSE ON THE STAGE OF LIFE.
 THEY MAKE LOVE AT THE RISK OF DESTRUCTION,
 INTRIGUE, CARRY ON WAR, AND FORM PROJECTS, JUST AS IF THEY
 WERE TO LIVE IN LUXURY AND HAPPINESS FOR A THOUSAND
 AGES.

                                              -- VOLTAIRE
 Job cpu time:       0 days  0 hours  4 minutes 53.2 seconds.
 Elapsed time:       0 days  0 hours  0 minutes 39.9 seconds.
 File lengths (MBytes):  RWF=     38 Int=      0 D2E=      0 Chk=      3 Scr=      1
 Normal termination of Gaussian 16 at Mon May 31 13:19:39 2021.
