 Entering Gaussian System, Link 0=g16
 Input=w-3-tio2_neutral_scf_g09.com
 Output=w-3-tio2_neutral_scf_g09.log
 Initial command:
 /home/rheinheimer/Apps//g16/l1.exe "/home/rheinheimer/Apps/scrgauss/Gau-314757.inp" -scrdir="/home/rheinheimer/Apps/scrgauss/"
 Entering Link 1 = /home/rheinheimer/Apps//g16/l1.exe PID=    314761.
  
 Copyright (c) 1988,1990,1992,1993,1995,1998,2003,2009,2016,
            Gaussian, Inc.  All Rights Reserved.
  
 This is part of the Gaussian(R) 16 program.  It is based on
 the Gaussian(R) 09 system (copyright 2009, Gaussian, Inc.),
 the Gaussian(R) 03 system (copyright 2003, Gaussian, Inc.),
 the Gaussian(R) 98 system (copyright 1998, Gaussian, Inc.),
 the Gaussian(R) 94 system (copyright 1995, Gaussian, Inc.),
 the Gaussian 92(TM) system (copyright 1992, Gaussian, Inc.),
 the Gaussian 90(TM) system (copyright 1990, Gaussian, Inc.),
 the Gaussian 88(TM) system (copyright 1988, Gaussian, Inc.),
 the Gaussian 86(TM) system (copyright 1986, Carnegie Mellon
 University), and the Gaussian 82(TM) system (copyright 1983,
 Carnegie Mellon University). Gaussian is a federally registered
 trademark of Gaussian, Inc.
  
 This software contains proprietary and confidential information,
 including trade secrets, belonging to Gaussian, Inc.
  
 This software is provided under written license and may be
 used, copied, transmitted, or stored only in accord with that
 written license.
  
 The following legend is applicable only to US Government
 contracts under FAR:
  
                    RESTRICTED RIGHTS LEGEND
  
 Use, reproduction and disclosure by the US Government is
 subject to restrictions as set forth in subparagraphs (a)
 and (c) of the Commercial Computer Software - Restricted
 Rights clause in FAR 52.227-19.
  
 Gaussian, Inc.
 340 Quinnipiac St., Bldg. 40, Wallingford CT 06492
  
  
 ---------------------------------------------------------------
 Warning -- This program may not be used in any manner that
 competes with the business of Gaussian, Inc. or will provide
 assistance to any competitor of Gaussian, Inc.  The licensee
 of this program is prohibited from giving any competitor of
 Gaussian, Inc. access to this program.  By using this program,
 the user acknowledges that Gaussian, Inc. is engaged in the
 business of creating and licensing software in the field of
 computational chemistry and represents and warrants to the
 licensee that it is not a competitor of Gaussian, Inc. and that
 it will not use this program in any manner prohibited above.
 ---------------------------------------------------------------
  

 Cite this work as:
 Gaussian 16, Revision A.03,
 M. J. Frisch, G. W. Trucks, H. B. Schlegel, G. E. Scuseria, 
 M. A. Robb, J. R. Cheeseman, G. Scalmani, V. Barone, 
 G. A. Petersson, H. Nakatsuji, X. Li, M. Caricato, A. V. Marenich, 
 J. Bloino, B. G. Janesko, R. Gomperts, B. Mennucci, H. P. Hratchian, 
 J. V. Ortiz, A. F. Izmaylov, J. L. Sonnenberg, D. Williams-Young, 
 F. Ding, F. Lipparini, F. Egidi, J. Goings, B. Peng, A. Petrone, 
 T. Henderson, D. Ranasinghe, V. G. Zakrzewski, J. Gao, N. Rega, 
 G. Zheng, W. Liang, M. Hada, M. Ehara, K. Toyota, R. Fukuda, 
 J. Hasegawa, M. Ishida, T. Nakajima, Y. Honda, O. Kitao, H. Nakai, 
 T. Vreven, K. Throssell, J. A. Montgomery, Jr., J. E. Peralta, 
 F. Ogliaro, M. J. Bearpark, J. J. Heyd, E. N. Brothers, K. N. Kudin, 
 V. N. Staroverov, T. A. Keith, R. Kobayashi, J. Normand, 
 K. Raghavachari, A. P. Rendell, J. C. Burant, S. S. Iyengar, 
 J. Tomasi, M. Cossi, J. M. Millam, M. Klene, C. Adamo, R. Cammi, 
 J. W. Ochterski, R. L. Martin, K. Morokuma, O. Farkas, 
 J. B. Foresman, and D. J. Fox, Gaussian, Inc., Wallingford CT, 2016.
 
 ******************************************
 Gaussian 16:  ES64L-G16RevA.03 25-Dec-2016
                31-May-2021 
 ******************************************
 %nproc=8
 Will use up to    8 processors via shared memory.
 %Mem=4GB
 ----------------------------------------------------------------------
 #t B3LYP/LANL2DZ # SCRF=(Solvent=Water) # Gfinput IOP(6/7=3) Pop=hirsh
 feld Density Test # Units(Ang,Deg)
 ----------------------------------------------------------------------
 ----------
 3-tio2.pdb
 ----------
 Symbolic Z-matrix:
 Charge =  0 Multiplicity = 1
 Ti                   -1   -1.641     1.281    -0.014 
 Ti                   -1    1.10771   1.4132   -0.03946 
 Ti                   -1    3.85641   1.54539  -0.06492 
 O                    -1    2.59825   0.24907   0.2663 
 O                    -1    2.43627   2.63074  -0.53887 
 O                    -1   -0.25649   0.15493   0.47724 
 O                    -1   -0.2814    2.55791  -0.35239 
 O                    -1   -2.55713   2.59863  -0.32145 
 O                    -1    4.7771    0.2363    0.21798 
 
                    Distance matrix (angstroms):
                    1          2          3          4          5
     1  Ti   0.000000
     2  Ti   2.752000   0.000000
     3  Ti   5.504000   2.752000   0.000000
     4  O    4.372031   1.915826   1.836609   0.000000
     5  O    4.326823   1.870000   1.849165   2.519302   0.000000
     6  O    1.851000   1.926459   4.375305   2.864071   3.796453
     7  O    1.895660   1.827000   4.269583   3.742449   2.725034
     8  O    1.634000   3.862094   6.504506   5.695942   4.998231
     9  O    6.506700   3.862094   1.625240   2.179422   3.433019
                    6          7          8          9
     6  O    0.000000
     7  O    2.542288   0.000000
     8  O    3.449994   2.276301   0.000000
     9  O    5.040918   5.594962   7.724144   0.000000
 Framework group  C1[X(O6Ti3)]
 Deg. of freedom    21
                         Standard orientation:                         
 ---------------------------------------------------------------------
 Center     Atomic      Atomic             Coordinates (Angstroms)
 Number     Number       Type             X           Y           Z
 ---------------------------------------------------------------------
      1         22           0        2.726994    0.401258   -0.047705
      2         22           0        0.005248   -0.002642    0.001996
      3         22           0       -2.716498   -0.406541    0.051697
      4          8           0       -1.597126    1.046684   -0.039274
      5          8           0       -1.188846   -1.438791   -0.090267
      6          8           0        1.230515    1.480849    0.098021
      7          8           0        1.504924   -1.045720    0.031827
      8          8           0        3.772819   -0.850755    0.045392
      9          8           0       -3.765581    0.829526   -0.062169
 ---------------------------------------------------------------------
 Rotational constants (GHZ):           3.5585257           0.3919366           0.3533754
 AO basis set in the form of general basis input (Overlap normalization):
      1 0
 S   3 1.00       0.000000000000
      0.1098000000D+01 -0.1023676994D+00
      0.4178000000D+00 -0.3753172148D+00
      0.8720000000D-01  0.1215423149D+01
 S   3 1.00       0.000000000000
      0.4372000000D+01 -0.3637098367D+00
      0.1098000000D+01  0.8184533826D+00
      0.4178000000D+00  0.4184526423D+00
 S   1 1.00       0.000000000000
      0.3140000000D-01  0.1000000000D+01
 P   3 1.00       0.000000000000
      0.1252000000D+02 -0.4569080054D-01
      0.1491000000D+01  0.6203313074D+00
      0.4859000000D+00  0.4765329057D+00
 P   1 1.00       0.000000000000
      0.5300000000D-01  0.1000000000D+01
 P   1 1.00       0.000000000000
      0.1600000000D-01  0.1000000000D+01
 D   4 1.00       0.000000000000
      0.2021000000D+02  0.3416819898D-01
      0.5495000000D+01  0.1710005949D+00
      0.1699000000D+01  0.4405848869D+00
      0.4840000000D+00  0.6114245818D+00
 D   1 1.00       0.000000000000
      0.1157000000D+00  0.1000000000D+01
 ****
      2 0
 S   3 1.00       0.000000000000
      0.1098000000D+01 -0.1023676994D+00
      0.4178000000D+00 -0.3753172148D+00
      0.8720000000D-01  0.1215423149D+01
 S   3 1.00       0.000000000000
      0.4372000000D+01 -0.3637098367D+00
      0.1098000000D+01  0.8184533826D+00
      0.4178000000D+00  0.4184526423D+00
 S   1 1.00       0.000000000000
      0.3140000000D-01  0.1000000000D+01
 P   3 1.00       0.000000000000
      0.1252000000D+02 -0.4569080054D-01
      0.1491000000D+01  0.6203313074D+00
      0.4859000000D+00  0.4765329057D+00
 P   1 1.00       0.000000000000
      0.5300000000D-01  0.1000000000D+01
 P   1 1.00       0.000000000000
      0.1600000000D-01  0.1000000000D+01
 D   4 1.00       0.000000000000
      0.2021000000D+02  0.3416819898D-01
      0.5495000000D+01  0.1710005949D+00
      0.1699000000D+01  0.4405848869D+00
      0.4840000000D+00  0.6114245818D+00
 D   1 1.00       0.000000000000
      0.1157000000D+00  0.1000000000D+01
 ****
      3 0
 S   3 1.00       0.000000000000
      0.1098000000D+01 -0.1023676994D+00
      0.4178000000D+00 -0.3753172148D+00
      0.8720000000D-01  0.1215423149D+01
 S   3 1.00       0.000000000000
      0.4372000000D+01 -0.3637098367D+00
      0.1098000000D+01  0.8184533826D+00
      0.4178000000D+00  0.4184526423D+00
 S   1 1.00       0.000000000000
      0.3140000000D-01  0.1000000000D+01
 P   3 1.00       0.000000000000
      0.1252000000D+02 -0.4569080054D-01
      0.1491000000D+01  0.6203313074D+00
      0.4859000000D+00  0.4765329057D+00
 P   1 1.00       0.000000000000
      0.5300000000D-01  0.1000000000D+01
 P   1 1.00       0.000000000000
      0.1600000000D-01  0.1000000000D+01
 D   4 1.00       0.000000000000
      0.2021000000D+02  0.3416819898D-01
      0.5495000000D+01  0.1710005949D+00
      0.1699000000D+01  0.4405848869D+00
      0.4840000000D+00  0.6114245818D+00
 D   1 1.00       0.000000000000
      0.1157000000D+00  0.1000000000D+01
 ****
      4 0
 S   7 1.00       0.000000000000
      0.7817000000D+04  0.1176000331D-02
      0.1176000000D+04  0.8968002523D-02
      0.2732000000D+03  0.4286801206D-01
      0.8117000000D+02  0.1439300405D+00
      0.2718000000D+02  0.3556301000D+00
      0.9532000000D+01  0.4612481297D+00
      0.3414000000D+01  0.1402060394D+00
 S   2 1.00       0.000000000000
      0.9532000000D+01 -0.1541530739D+00
      0.9398000000D+00  0.1056914507D+01
 S   1 1.00       0.000000000000
      0.2846000000D+00  0.1000000000D+01
 P   4 1.00       0.000000000000
      0.3518000000D+02  0.1958000050D-01
      0.7904000000D+01  0.1242000032D+00
      0.2305000000D+01  0.3947140101D+00
      0.7171000000D+00  0.6273760161D+00
 P   1 1.00       0.000000000000
      0.2137000000D+00  0.1000000000D+01
 ****
      5 0
 S   7 1.00       0.000000000000
      0.7817000000D+04  0.1176000331D-02
      0.1176000000D+04  0.8968002523D-02
      0.2732000000D+03  0.4286801206D-01
      0.8117000000D+02  0.1439300405D+00
      0.2718000000D+02  0.3556301000D+00
      0.9532000000D+01  0.4612481297D+00
      0.3414000000D+01  0.1402060394D+00
 S   2 1.00       0.000000000000
      0.9532000000D+01 -0.1541530739D+00
      0.9398000000D+00  0.1056914507D+01
 S   1 1.00       0.000000000000
      0.2846000000D+00  0.1000000000D+01
 P   4 1.00       0.000000000000
      0.3518000000D+02  0.1958000050D-01
      0.7904000000D+01  0.1242000032D+00
      0.2305000000D+01  0.3947140101D+00
      0.7171000000D+00  0.6273760161D+00
 P   1 1.00       0.000000000000
      0.2137000000D+00  0.1000000000D+01
 ****
      6 0
 S   7 1.00       0.000000000000
      0.7817000000D+04  0.1176000331D-02
      0.1176000000D+04  0.8968002523D-02
      0.2732000000D+03  0.4286801206D-01
      0.8117000000D+02  0.1439300405D+00
      0.2718000000D+02  0.3556301000D+00
      0.9532000000D+01  0.4612481297D+00
      0.3414000000D+01  0.1402060394D+00
 S   2 1.00       0.000000000000
      0.9532000000D+01 -0.1541530739D+00
      0.9398000000D+00  0.1056914507D+01
 S   1 1.00       0.000000000000
      0.2846000000D+00  0.1000000000D+01
 P   4 1.00       0.000000000000
      0.3518000000D+02  0.1958000050D-01
      0.7904000000D+01  0.1242000032D+00
      0.2305000000D+01  0.3947140101D+00
      0.7171000000D+00  0.6273760161D+00
 P   1 1.00       0.000000000000
      0.2137000000D+00  0.1000000000D+01
 ****
      7 0
 S   7 1.00       0.000000000000
      0.7817000000D+04  0.1176000331D-02
      0.1176000000D+04  0.8968002523D-02
      0.2732000000D+03  0.4286801206D-01
      0.8117000000D+02  0.1439300405D+00
      0.2718000000D+02  0.3556301000D+00
      0.9532000000D+01  0.4612481297D+00
      0.3414000000D+01  0.1402060394D+00
 S   2 1.00       0.000000000000
      0.9532000000D+01 -0.1541530739D+00
      0.9398000000D+00  0.1056914507D+01
 S   1 1.00       0.000000000000
      0.2846000000D+00  0.1000000000D+01
 P   4 1.00       0.000000000000
      0.3518000000D+02  0.1958000050D-01
      0.7904000000D+01  0.1242000032D+00
      0.2305000000D+01  0.3947140101D+00
      0.7171000000D+00  0.6273760161D+00
 P   1 1.00       0.000000000000
      0.2137000000D+00  0.1000000000D+01
 ****
      8 0
 S   7 1.00       0.000000000000
      0.7817000000D+04  0.1176000331D-02
      0.1176000000D+04  0.8968002523D-02
      0.2732000000D+03  0.4286801206D-01
      0.8117000000D+02  0.1439300405D+00
      0.2718000000D+02  0.3556301000D+00
      0.9532000000D+01  0.4612481297D+00
      0.3414000000D+01  0.1402060394D+00
 S   2 1.00       0.000000000000
      0.9532000000D+01 -0.1541530739D+00
      0.9398000000D+00  0.1056914507D+01
 S   1 1.00       0.000000000000
      0.2846000000D+00  0.1000000000D+01
 P   4 1.00       0.000000000000
      0.3518000000D+02  0.1958000050D-01
      0.7904000000D+01  0.1242000032D+00
      0.2305000000D+01  0.3947140101D+00
      0.7171000000D+00  0.6273760161D+00
 P   1 1.00       0.000000000000
      0.2137000000D+00  0.1000000000D+01
 ****
      9 0
 S   7 1.00       0.000000000000
      0.7817000000D+04  0.1176000331D-02
      0.1176000000D+04  0.8968002523D-02
      0.2732000000D+03  0.4286801206D-01
      0.8117000000D+02  0.1439300405D+00
      0.2718000000D+02  0.3556301000D+00
      0.9532000000D+01  0.4612481297D+00
      0.3414000000D+01  0.1402060394D+00
 S   2 1.00       0.000000000000
      0.9532000000D+01 -0.1541530739D+00
      0.9398000000D+00  0.1056914507D+01
 S   1 1.00       0.000000000000
      0.2846000000D+00  0.1000000000D+01
 P   4 1.00       0.000000000000
      0.3518000000D+02  0.1958000050D-01
      0.7904000000D+01  0.1242000032D+00
      0.2305000000D+01  0.3947140101D+00
      0.7171000000D+00  0.6273760161D+00
 P   1 1.00       0.000000000000
      0.2137000000D+00  0.1000000000D+01
 ****

 Effective core potential in the form of general ECP input:
      1 0
 Ti1-ECP   2 10
 D component
  3
  1      265.3263909      -10.00000000    0.00000000
  2       47.7687815      -51.84278160    0.00000000
  2       11.8903334       -9.14291450    0.00000000
 S-D projection
  5
  0       81.4730696        3.00000000    0.00000000
  1       72.6496724       19.48255790    0.00000000
  2       31.8128213      207.33492790    0.00000000
  2        6.1664468      235.67445010    0.00000000
  2        5.8268347     -166.87843870    0.00000000
 P-D projection
  5
  0       50.2966943        5.00000000    0.00000000
  1       63.5089754        5.53488220    0.00000000
  2       26.0996084      177.84193840    0.00000000
  2        5.6022573      107.42071530    0.00000000
  2        5.2171069      -71.90659020    0.00000000
      2 0
 Ti2-ECP   2 10
 D component
  3
  1      265.3263909      -10.00000000    0.00000000
  2       47.7687815      -51.84278160    0.00000000
  2       11.8903334       -9.14291450    0.00000000
 S-D projection
  5
  0       81.4730696        3.00000000    0.00000000
  1       72.6496724       19.48255790    0.00000000
  2       31.8128213      207.33492790    0.00000000
  2        6.1664468      235.67445010    0.00000000
  2        5.8268347     -166.87843870    0.00000000
 P-D projection
  5
  0       50.2966943        5.00000000    0.00000000
  1       63.5089754        5.53488220    0.00000000
  2       26.0996084      177.84193840    0.00000000
  2        5.6022573      107.42071530    0.00000000
  2        5.2171069      -71.90659020    0.00000000
      3 0
 Ti3-ECP   2 10
 D component
  3
  1      265.3263909      -10.00000000    0.00000000
  2       47.7687815      -51.84278160    0.00000000
  2       11.8903334       -9.14291450    0.00000000
 S-D projection
  5
  0       81.4730696        3.00000000    0.00000000
  1       72.6496724       19.48255790    0.00000000
  2       31.8128213      207.33492790    0.00000000
  2        6.1664468      235.67445010    0.00000000
  2        5.8268347     -166.87843870    0.00000000
 P-D projection
  5
  0       50.2966943        5.00000000    0.00000000
  1       63.5089754        5.53488220    0.00000000
  2       26.0996084      177.84193840    0.00000000
  2        5.6022573      107.42071530    0.00000000
  2        5.2171069      -71.90659020    0.00000000
 
   120 basis functions,   306 primitive gaussians,   126 cartesian basis functions
    42 alpha electrons       42 beta electrons
       nuclear repulsion energy       586.5669931727 Hartrees.
 NAtoms=    9 NActive=    9 NUniq=    9 SFac= 1.00D+00 NAtFMM=   60 NAOKFM=F Big=F
 ------------------------------------------------------------------------------
 Polarizable Continuum Model (PCM)
 =================================
 Model                : PCM.
 Atomic radii         : UFF (Universal Force Field).
 Polarization charges : Total charges.
 Charge compensation  : None.
 Solution method      : On-the-fly selection.
 Cavity type          : Scaled VdW (van der Waals Surface) (Alpha=1.100).
 Cavity algorithm     : GePol (No added spheres)
                        Default sphere list used, NSphG=    9.
                        Lebedev-Laikov grids with approx.  5.0 points / Ang**2.
                        Smoothing algorithm: York/Karplus (Gamma=1.0000).
                        Polarization charges: spherical gaussians, with
                                              point-specific exponents (IZeta= 3).
                        Self-potential: point-specific (ISelfS= 7).
                        Self-field    : sphere-specific E.n sum rule (ISelfD= 2).
 Solvent              : Water, Eps=  78.355300 Eps(inf)=   1.777849
 ------------------------------------------------------------------------------
 Spheres list:
 ISph  on   Nord     Re0    Alpha      Xe            Ye            Ze
    1  Ti      1    1.5875  1.100      2.726994      0.401258     -0.047705
    2  Ti      2    1.5875  1.100      0.005248     -0.002642      0.001996
    3  Ti      3    1.5875  1.100     -2.716498     -0.406541      0.051697
    4   O      4    1.7500  1.100     -1.597126      1.046684     -0.039274
    5   O      5    1.7500  1.100     -1.188846     -1.438791     -0.090267
    6   O      6    1.7500  1.100      1.230515      1.480849      0.098021
    7   O      7    1.7500  1.100      1.504924     -1.045720      0.031827
    8   O      8    1.7500  1.100      3.772819     -0.850755      0.045392
    9   O      9    1.7500  1.100     -3.765581      0.829526     -0.062169
 ------------------------------------------------------------------------------
   1 Symmetry operations used in ECPInt.
 ECPInt:  NShTT=    1485 NPrTT=   10224 LenC2=    1449 LenP2D=    7176.
 LDataN:  DoStor=T MaxTD1= 4 Len=   56
 ExpMin= 1.60D-02 ExpMax= 7.82D+03 ExpMxC= 2.73D+02 IAcc=3 IRadAn=         5 AccDes= 0.00D+00
 Harris functional with IExCor=  402 and IRadAn=       5 diagonalized for initial guess.
 HarFok:  IExCor=  402 AccDes= 0.00D+00 IRadAn=         5 IDoV= 1 UseB2=F ITyADJ=14
 ICtDFT=  3500011 ScaDFX=  1.000000  1.000000  1.000000  1.000000
 FoFCou: FMM=F IPFlag=           0 FMFlag=      100000 FMFlg1=           0
         NFxFlg=           0 DoJE=T BraDBF=F KetDBF=T FulRan=T
         wScrn=  0.000000 ICntrl=       500 IOpCl=  0 I1Cent=   200000004 NGrid=           0
         NMat0=    1 NMatS0=      1 NMatT0=    0 NMatD0=    1 NMtDS0=    0 NMtDT0=    0
 Petite list used in FoFCou.
 Inv3:  Mode=1 IEnd=     4657548.
 Iteration    1 A*A^-1 deviation from unit magnitude is 3.00D-15 for    921.
 Iteration    1 A*A^-1 deviation from orthogonality  is 1.81D-15 for    558    394.
 Iteration    1 A^-1*A deviation from unit magnitude is 2.89D-15 for    760.
 Iteration    1 A^-1*A deviation from orthogonality  is 1.19D-15 for    729    682.
 Error on total polarization charges =  0.03456
 SCF Done:  E(RB3LYP) =  -626.023403626     A.U. after   19 cycles
            NFock= 19  Conv=0.40D-08     -V/T= 2.1976

 **********************************************************************

            Population analysis using the SCF density.

 **********************************************************************

 Orbital symmetries:
       Occupied  (A) (A) (A) (A) (A) (A) (A) (A) (A) (A) (A) (A)
                 (A) (A) (A) (A) (A) (A) (A) (A) (A) (A) (A) (A)
                 (A) (A) (A) (A) (A) (A) (A) (A) (A) (A) (A) (A)
                 (A) (A) (A) (A) (A) (A)
       Virtual   (A) (A) (A) (A) (A) (A) (A) (A) (A) (A) (A) (A)
                 (A) (A) (A) (A) (A) (A) (A) (A) (A) (A) (A) (A)
                 (A) (A) (A) (A) (A) (A) (A) (A) (A) (A) (A) (A)
                 (A) (A) (A) (A) (A) (A) (A) (A) (A) (A) (A) (A)
                 (A) (A) (A) (A) (A) (A) (A) (A) (A) (A) (A) (A)
                 (A) (A) (A) (A) (A) (A) (A) (A) (A) (A) (A) (A)
                 (A) (A) (A) (A) (A) (A)
 The electronic state is 1-A.
 Alpha  occ. eigenvalues --  -19.11276 -19.10106 -19.10078 -19.09950 -19.09609
 Alpha  occ. eigenvalues --  -19.08768  -2.45801  -2.44058  -2.42746  -1.58828
 Alpha  occ. eigenvalues --   -1.57671  -1.57180  -1.56674  -1.56073  -1.55948
 Alpha  occ. eigenvalues --   -1.55687  -1.54894  -1.54587  -0.90955  -0.89444
 Alpha  occ. eigenvalues --   -0.88621  -0.87477  -0.84193  -0.83476  -0.39615
 Alpha  occ. eigenvalues --   -0.38123  -0.37810  -0.36784  -0.35372  -0.34692
 Alpha  occ. eigenvalues --   -0.34031  -0.32819  -0.32492  -0.32451  -0.32131
 Alpha  occ. eigenvalues --   -0.28975  -0.27772  -0.27031  -0.26515  -0.26094
 Alpha  occ. eigenvalues --   -0.25680  -0.22805
 Alpha virt. eigenvalues --   -0.10973  -0.09432  -0.08662  -0.07954  -0.07506
 Alpha virt. eigenvalues --   -0.07176  -0.05250  -0.04544  -0.02176  -0.01741
 Alpha virt. eigenvalues --   -0.01251  -0.01091  -0.00864  -0.00314   0.01155
 Alpha virt. eigenvalues --    0.01182   0.02091   0.02259   0.02627   0.02906
 Alpha virt. eigenvalues --    0.04600   0.04653   0.05255   0.07660   0.09143
 Alpha virt. eigenvalues --    0.09940   0.11167   0.11893   0.12365   0.13487
 Alpha virt. eigenvalues --    0.14988   0.15726   0.16082   0.19199   0.19823
 Alpha virt. eigenvalues --    0.24648   0.31884   0.32188   0.33947   0.34003
 Alpha virt. eigenvalues --    0.34669   0.35387   0.36577   0.37564   0.40201
 Alpha virt. eigenvalues --    0.42446   0.42647   0.46141   0.48735   0.50375
 Alpha virt. eigenvalues --    0.54303   0.68993   0.72421   0.75110   0.75713
 Alpha virt. eigenvalues --    0.77076   0.79448   0.80188   0.81164   0.83825
 Alpha virt. eigenvalues --    0.85250   0.89271   0.89776   0.90855   0.91528
 Alpha virt. eigenvalues --    0.98446   1.05796   1.06064   1.08288   1.35779
 Alpha virt. eigenvalues --    1.40910   1.55127   1.70254   1.74183   1.94916
 Alpha virt. eigenvalues --    4.14655   9.47245  15.41652
     Molecular Orbital Coefficients:
                           1         2         3         4         5
                           O         O         O         O         O
     Eigenvalues --   -19.11276 -19.10106 -19.10078 -19.09950 -19.09609
   1 1   Ti 1S          0.00019   0.00027  -0.00033   0.00075   0.00172
   2        2S          0.00000   0.00005  -0.00012   0.00020   0.00065
   3        3S         -0.00025   0.00077   0.00118  -0.00075  -0.00077
   4        4PX        -0.00011   0.00004   0.00000  -0.00011   0.00019
   5        4PY        -0.00012   0.00001  -0.00000   0.00008  -0.00018
   6        4PZ         0.00001   0.00000  -0.00000   0.00002   0.00003
   7        5PX        -0.00027  -0.00049  -0.00052  -0.00003   0.00076
   8        5PY         0.00004   0.00045  -0.00061   0.00009  -0.00012
   9        5PZ         0.00001   0.00000  -0.00003   0.00002   0.00008
  10        6PX         0.00017  -0.00008  -0.00006   0.00012  -0.00019
  11        6PY        -0.00006  -0.00006   0.00004   0.00006   0.00014
  12        6PZ         0.00000  -0.00001   0.00001  -0.00001  -0.00004
  13        7D 0       -0.00006  -0.00002   0.00001  -0.00008  -0.00003
  14        7D+1       -0.00001  -0.00000  -0.00001  -0.00002  -0.00000
  15        7D-1       -0.00001  -0.00000   0.00000   0.00001   0.00000
  16        7D+2       -0.00004  -0.00003  -0.00001   0.00003   0.00002
  17        7D-2        0.00013   0.00002  -0.00002  -0.00015  -0.00006
  18        8D 0       -0.00028  -0.00007   0.00013  -0.00044  -0.00054
  19        8D+1       -0.00002   0.00001   0.00003  -0.00006   0.00001
  20        8D-1        0.00000   0.00001  -0.00003   0.00006   0.00000
  21        8D+2        0.00017   0.00022  -0.00005   0.00016   0.00010
  22        8D-2       -0.00001  -0.00042   0.00064  -0.00059  -0.00137
  23 2   Ti 1S          0.00127   0.00127   0.00127   0.00129  -0.00024
  24        2S          0.00033   0.00029   0.00029   0.00028  -0.00005
  25        3S         -0.00058  -0.00049  -0.00049  -0.00047   0.00017
  26        4PX         0.00015  -0.00009  -0.00008   0.00005   0.00000
  27        4PY        -0.00012   0.00008  -0.00012   0.00009  -0.00003
  28        4PZ         0.00000  -0.00000  -0.00001   0.00001   0.00000
  29        5PX         0.00126  -0.00128  -0.00142   0.00144   0.00046
  30        5PY         0.00000  -0.00004  -0.00010   0.00013  -0.00023
  31        5PZ        -0.00000   0.00000   0.00001  -0.00001  -0.00004
  32        6PX        -0.00001  -0.00000  -0.00023   0.00025   0.00025
  33        6PY         0.00022  -0.00020   0.00010  -0.00010   0.00004
  34        6PZ        -0.00002   0.00002   0.00002  -0.00002   0.00002
  35        7D 0       -0.00008  -0.00009  -0.00008  -0.00008  -0.00000
  36        7D+1        0.00000   0.00000   0.00001   0.00001  -0.00000
  37        7D-1       -0.00001  -0.00001   0.00001   0.00001  -0.00000
  38        7D+2        0.00003   0.00003  -0.00004  -0.00004   0.00001
  39        7D-2       -0.00012  -0.00013   0.00012   0.00012  -0.00001
  40        8D 0       -0.00059  -0.00061  -0.00062  -0.00062   0.00016
  41        8D+1        0.00003   0.00004   0.00009   0.00009  -0.00001
  42        8D-1       -0.00004  -0.00004   0.00009   0.00010  -0.00004
  43        8D+2        0.00078   0.00082  -0.00018  -0.00020   0.00006
  44        8D-2       -0.00173  -0.00174   0.00161   0.00156  -0.00085
  45 3   Ti 1S          0.00030   0.00016   0.00074  -0.00031   0.00024
  46        2S          0.00007   0.00003   0.00019  -0.00013   0.00008
  47        3S          0.00077  -0.00032  -0.00069   0.00119   0.00029
  48        4PX        -0.00003   0.00013   0.00011  -0.00001  -0.00000
  49        4PY        -0.00001   0.00014  -0.00007   0.00000  -0.00000
  50        4PZ        -0.00000  -0.00001  -0.00002   0.00001  -0.00000
  51        5PX         0.00051   0.00021   0.00007   0.00054   0.00024
  52        5PY        -0.00045  -0.00003  -0.00006   0.00058  -0.00011
  53        5PZ        -0.00000  -0.00001  -0.00002   0.00003   0.00000
  54        6PX         0.00008  -0.00017  -0.00012   0.00005  -0.00006
  55        6PY         0.00005   0.00005  -0.00007  -0.00003   0.00002
  56        6PZ         0.00001  -0.00000   0.00001  -0.00001  -0.00000
  57        7D 0       -0.00003  -0.00005  -0.00008   0.00001  -0.00000
  58        7D+1       -0.00000  -0.00001  -0.00001  -0.00001   0.00000
  59        7D-1       -0.00000  -0.00001   0.00001   0.00000  -0.00000
  60        7D+2       -0.00003  -0.00004   0.00003  -0.00001  -0.00000
  61        7D-2        0.00001   0.00013  -0.00015  -0.00002  -0.00000
  62        8D 0       -0.00006  -0.00025  -0.00045   0.00012  -0.00006
  63        8D+1        0.00000  -0.00002  -0.00005   0.00003   0.00000
  64        8D-1        0.00002   0.00000   0.00006  -0.00002   0.00001
  65        8D+2        0.00021   0.00014   0.00021  -0.00004   0.00008
  66        8D-2       -0.00043  -0.00000  -0.00056   0.00062  -0.00017
  67 4   O  1S          0.00032   0.99880   0.00869   0.00035  -0.00010
  68        2S          0.00033   0.00657   0.00002  -0.00001   0.00004
  69        3S         -0.00119  -0.00482   0.00008   0.00011  -0.00019
  70        4PX         0.00004   0.00017  -0.00001  -0.00002   0.00003
  71        4PY        -0.00000  -0.00087   0.00005  -0.00000   0.00000
  72        4PZ         0.00000   0.00005   0.00000   0.00000  -0.00000
  73        5PX        -0.00060  -0.00054   0.00010   0.00013  -0.00017
  74        5PY         0.00027   0.00098  -0.00002   0.00007  -0.00000
  75        5PZ        -0.00001  -0.00005  -0.00000  -0.00001   0.00000
  76 5   O  1S         -0.00007  -0.00868   0.99880  -0.00205   0.00028
  77        2S         -0.00002  -0.00010   0.00668   0.00022  -0.00010
  78        3S          0.00015   0.00018  -0.00523  -0.00084   0.00038
  79        4PX        -0.00004  -0.00000  -0.00010   0.00004  -0.00002
  80        4PY        -0.00002  -0.00006   0.00072   0.00001  -0.00001
  81        4PZ         0.00000  -0.00000   0.00005  -0.00000  -0.00000
  82        5PX         0.00030   0.00017   0.00002  -0.00054   0.00018
  83        5PY         0.00002   0.00006  -0.00101  -0.00034   0.00016
  84        5PZ        -0.00001   0.00000  -0.00009   0.00001   0.00001
  85 6   O  1S         -0.00016  -0.00037   0.00206   0.99885  -0.00069
  86        2S         -0.00003  -0.00001   0.00024   0.00662   0.00019
  87        3S          0.00010   0.00015  -0.00080  -0.00514  -0.00066
  88        4PX         0.00000   0.00002  -0.00004   0.00011   0.00005
  89        4PY         0.00005   0.00002  -0.00002  -0.00071   0.00001
  90        4PZ         0.00000  -0.00000   0.00000  -0.00005  -0.00001
  91        5PX        -0.00016  -0.00026   0.00055   0.00000  -0.00063
  92        5PY        -0.00005  -0.00002   0.00037   0.00103  -0.00000
  93        5PZ         0.00000   0.00002  -0.00000   0.00009   0.00010
  94 7   O  1S          0.99884  -0.00030   0.00007   0.00016   0.00012
  95        2S          0.00658   0.00034  -0.00002  -0.00002  -0.00005
  96        3S         -0.00487  -0.00129   0.00015   0.00010  -0.00001
  97        4PX        -0.00017  -0.00002   0.00003   0.00001  -0.00009
  98        4PY         0.00087  -0.00000   0.00000  -0.00006  -0.00003
  99        4PZ        -0.00004   0.00000  -0.00000  -0.00000   0.00000
 100        5PX         0.00045   0.00049  -0.00017  -0.00007   0.00039
 101        5PY        -0.00097  -0.00028  -0.00009   0.00001   0.00016
 102        5PZ         0.00003  -0.00000   0.00001   0.00000  -0.00001
 103 8   O  1S         -0.00012   0.00011  -0.00028   0.00070   0.99884
 104        2S         -0.00005   0.00005  -0.00011   0.00021   0.00640
 105        3S         -0.00002  -0.00021   0.00044  -0.00078  -0.00435
 106        4PX         0.00005   0.00000  -0.00001   0.00003  -0.00035
 107        4PY         0.00000   0.00000  -0.00002  -0.00000   0.00061
 108        4PZ        -0.00000  -0.00000   0.00001  -0.00001  -0.00004
 109        5PX        -0.00012   0.00002   0.00002  -0.00001   0.00036
 110        5PY        -0.00003  -0.00010   0.00017  -0.00020  -0.00074
 111        5PZ         0.00002   0.00002  -0.00005   0.00010   0.00010
 112 9   O  1S          0.00003  -0.00019   0.00018  -0.00011   0.00007
 113        2S          0.00007  -0.00008   0.00020  -0.00010   0.00005
 114        3S         -0.00026   0.00003  -0.00075   0.00043  -0.00016
 115        4PX         0.00000  -0.00004  -0.00003   0.00002   0.00000
 116        4PY        -0.00000  -0.00000   0.00000   0.00002  -0.00000
 117        4PZ         0.00000   0.00000   0.00001  -0.00001   0.00000
 118        5PX        -0.00006   0.00014   0.00003  -0.00003  -0.00003
 119        5PY         0.00008   0.00001   0.00020  -0.00016   0.00005
 120        5PZ        -0.00002  -0.00002  -0.00011   0.00005  -0.00002
                           6         7         8         9        10
                           O         O         O         O         O
     Eigenvalues --   -19.08768  -2.45801  -2.44058  -2.42746  -1.58828
   1 1   Ti 1S          0.00023  -0.00158  -0.01046   0.00024   0.00331
   2        2S          0.00007   0.05293   0.99973   0.00210  -0.00643
   3        3S          0.00030  -0.00450   0.00236  -0.00416   0.00876
   4        4PX         0.00001  -0.00142   0.00332  -0.00011  -0.30755
   5        4PY         0.00000  -0.00130  -0.01705   0.00002  -0.01300
   6        4PZ         0.00000   0.00013   0.00268   0.00003   0.00651
   7        5PX        -0.00024   0.00119   0.00295   0.00297  -0.01097
   8        5PY         0.00013   0.00105   0.00338   0.00061  -0.00060
   9        5PZ        -0.00000  -0.00034  -0.00003   0.00008  -0.00028
  10        6PX         0.00006   0.00070  -0.00097   0.00018   0.00216
  11        6PY        -0.00002  -0.00025  -0.00018  -0.00022  -0.00023
  12        6PZ         0.00000   0.00010  -0.00011   0.00001   0.00029
  13        7D 0        0.00000  -0.00034   0.00267  -0.00002  -0.00235
  14        7D+1        0.00000  -0.00000   0.00003  -0.00001  -0.00076
  15        7D-1       -0.00000  -0.00001   0.00012   0.00000   0.00010
  16        7D+2       -0.00000   0.00106   0.00071   0.00002   0.00435
  17        7D-2        0.00000   0.00044   0.00314   0.00008   0.00498
  18        8D 0       -0.00006   0.00337   0.00101   0.00000   0.00195
  19        8D+1        0.00001   0.00051  -0.00013  -0.00012   0.00048
  20        8D-1        0.00001  -0.00027   0.00023   0.00007  -0.00035
  21        8D+2        0.00010   0.00160  -0.00028  -0.00135   0.00447
  22        8D-2       -0.00017   0.00198  -0.00122  -0.00102   0.00310
  23 2   Ti 1S         -0.00020  -0.01276   0.00049   0.00032   0.00084
  24        2S         -0.00004   1.00033  -0.05385  -0.03130  -0.00273
  25        3S          0.00011   0.01020   0.00270   0.00312  -0.00039
  26        4PX         0.00000   0.00176   0.00162  -0.00174   0.89851
  27        4PY         0.00003  -0.00307   0.00038  -0.00002   0.11712
  28        4PZ         0.00000  -0.00005  -0.00004   0.00005   0.00351
  29        5PX        -0.00043   0.00016  -0.00029   0.00065  -0.01481
  30        5PY         0.00024  -0.00051  -0.00141   0.00131  -0.00089
  31        5PZ         0.00004  -0.00000  -0.00015   0.00013   0.00118
  32        6PX        -0.00025  -0.00006  -0.00065   0.00075  -0.00439
  33        6PY        -0.00004   0.00043  -0.00031   0.00022  -0.00072
  34        6PZ        -0.00002  -0.00001   0.00019  -0.00018  -0.00053
  35        7D 0       -0.00001   0.00290  -0.00058  -0.00050  -0.00089
  36        7D+1       -0.00000  -0.00022  -0.00002  -0.00002  -0.00004
  37        7D-1       -0.00000  -0.00024  -0.00000  -0.00001  -0.00008
  38        7D+2        0.00001   0.00311   0.00057   0.00060   0.00161
  39        7D-2       -0.00001   0.00122   0.00014   0.00009  -0.00270
  40        8D 0        0.00013   0.00148   0.00255   0.00231   0.00019
  41        8D+1       -0.00000   0.00035  -0.00032  -0.00032  -0.00013
  42        8D-1       -0.00004   0.00010  -0.00023  -0.00020  -0.00010
  43        8D+2        0.00002  -0.00474   0.00419   0.00462   0.00209
  44        8D-2       -0.00092  -0.00076  -0.00123  -0.00141  -0.00126
  45 3   Ti 1S          0.00169  -0.00140   0.00026  -0.00941  -0.00271
  46        2S          0.00065   0.02999  -0.00305   1.00033   0.00743
  47        3S         -0.00073  -0.00445  -0.00385   0.00202  -0.00878
  48        4PX        -0.00020   0.00146   0.00012  -0.00271  -0.20444
  49        4PY         0.00017   0.00091  -0.00009   0.01884  -0.00713
  50        4PZ        -0.00003  -0.00008  -0.00001  -0.00303   0.00502
  51        5PX        -0.00072  -0.00123  -0.00282  -0.00263  -0.01111
  52        5PY         0.00008  -0.00023  -0.00030  -0.00347  -0.00227
  53        5PZ        -0.00009   0.00034  -0.00008   0.00006  -0.00043
  54        6PX         0.00020  -0.00064  -0.00020   0.00082   0.00225
  55        6PY        -0.00012  -0.00024   0.00019   0.00028   0.00044
  56        6PZ         0.00005  -0.00010  -0.00002   0.00011   0.00035
  57        7D 0       -0.00003  -0.00039  -0.00001   0.00212   0.00237
  58        7D+1       -0.00000  -0.00000  -0.00001  -0.00002   0.00062
  59        7D-1        0.00000  -0.00001  -0.00000   0.00016  -0.00006
  60        7D+2        0.00002   0.00106   0.00001   0.00044  -0.00420
  61        7D-2       -0.00006   0.00032   0.00008   0.00237  -0.00374
  62        8D 0       -0.00052   0.00335   0.00002   0.00108  -0.00253
  63        8D+1        0.00003   0.00055  -0.00012  -0.00015  -0.00068
  64        8D-1       -0.00001  -0.00031   0.00003   0.00027   0.00048
  65        8D+2        0.00018   0.00122  -0.00135  -0.00005  -0.00486
  66        8D-2       -0.00136   0.00244  -0.00081  -0.00102  -0.00485
  67 4   O  1S          0.00019  -0.00215   0.00012  -0.00294   0.01140
  68        2S         -0.00007   0.00336  -0.00045   0.00529  -0.02476
  69        3S          0.00004   0.00622   0.00045   0.00526  -0.01664
  70        4PX         0.00009   0.00438  -0.00032  -0.00424  -0.01102
  71        4PY         0.00004  -0.00313   0.00005  -0.00559   0.01618
  72        4PZ        -0.00000   0.00011  -0.00001   0.00032  -0.00070
  73        5PX        -0.00048  -0.00374   0.00116   0.00204   0.00483
  74        5PY        -0.00018  -0.00020   0.00081   0.00264   0.00052
  75        5PZ         0.00001   0.00010   0.00004  -0.00012  -0.00005
  76 5   O  1S         -0.00017  -0.00257   0.00012  -0.00264   0.01294
  77        2S          0.00018   0.00417  -0.00083   0.00407  -0.02809
  78        3S         -0.00062   0.00719   0.00219   0.00670  -0.01884
  79        4PX        -0.00005   0.00373  -0.00023  -0.00532  -0.00565
  80        4PY        -0.00001   0.00491  -0.00021   0.00356  -0.02045
  81        4PZ         0.00001   0.00030  -0.00002   0.00041  -0.00154
  82        5PX         0.00061  -0.00420   0.00149   0.00377   0.00707
  83        5PY         0.00002  -0.00122   0.00013  -0.00048   0.00129
  84        5PZ        -0.00011   0.00008   0.00008   0.00014  -0.00005
  85 6   O  1S          0.00010  -0.00212  -0.00254   0.00004  -0.01227
  86        2S         -0.00009   0.00322   0.00391  -0.00067   0.02631
  87        3S          0.00035   0.00689   0.00650   0.00214   0.01948
  88        4PX         0.00001  -0.00299   0.00525   0.00023  -0.00286
  89        4PY         0.00002  -0.00415  -0.00357   0.00007  -0.01948
  90        4PZ         0.00000  -0.00026  -0.00042   0.00002  -0.00156
  91        5PX        -0.00015   0.00371  -0.00394  -0.00183   0.00401
  92        5PY        -0.00018   0.00075   0.00041  -0.00013   0.00064
  93        5PZ        -0.00001  -0.00010  -0.00011  -0.00009  -0.00007
  94 7   O  1S         -0.00003  -0.00311  -0.00221   0.00009  -0.01518
  95        2S          0.00006   0.00544   0.00368  -0.00034   0.03374
  96        3S         -0.00026   0.00648   0.00543   0.00040   0.01854
  97        4PX        -0.00003  -0.00577   0.00385   0.00024  -0.01248
  98        4PY        -0.00001   0.00444   0.00436   0.00001   0.02157
  99        4PZ         0.00000  -0.00012  -0.00022   0.00000  -0.00072
 100        5PX         0.00020   0.00473  -0.00191  -0.00093   0.00487
 101        5PY         0.00002  -0.00034  -0.00216  -0.00097  -0.00089
 102        5PZ        -0.00000  -0.00010   0.00008  -0.00000   0.00001
 103 8   O  1S         -0.00007  -0.00034  -0.00643  -0.00001   0.00590
 104        2S          0.00005   0.00057   0.01337   0.00008  -0.01293
 105        3S         -0.00015   0.00228   0.00324  -0.00060  -0.00299
 106        4PX        -0.00000  -0.00082  -0.00879   0.00006   0.00381
 107        4PY         0.00001   0.00068   0.01060  -0.00003  -0.00910
 108        4PZ        -0.00000   0.00002  -0.00077  -0.00001   0.00078
 109        5PX         0.00002   0.00128   0.00321  -0.00016   0.00040
 110        5PY        -0.00006  -0.00064  -0.00494   0.00024   0.00038
 111        5PZ         0.00001  -0.00048   0.00040   0.00010  -0.00059
 112 9   O  1S          0.99883  -0.00020   0.00002  -0.00674  -0.00410
 113        2S          0.00643   0.00032  -0.00005   0.01387   0.00897
 114        3S         -0.00437   0.00209  -0.00041   0.00350   0.00081
 115        4PX         0.00034   0.00062  -0.00011   0.00919   0.00256
 116        4PY        -0.00063  -0.00043   0.00009  -0.01087  -0.00619
 117        4PZ         0.00005  -0.00004   0.00001   0.00099   0.00071
 118        5PX        -0.00038  -0.00133   0.00029  -0.00320   0.00106
 119        5PY         0.00075   0.00039  -0.00032   0.00489  -0.00009
 120        5PZ        -0.00011   0.00057  -0.00008  -0.00048  -0.00080
                          11        12        13        14        15
                           O         O         O         O         O
     Eigenvalues --    -1.57671  -1.57180  -1.56674  -1.56073  -1.55948
   1 1   Ti 1S         -0.00001  -0.00243   0.00306  -0.00568   0.00063
   2        2S         -0.00029   0.00744  -0.02122   0.01385  -0.00116
   3        3S          0.00013   0.00417  -0.00226   0.00324  -0.00097
   4        4PX         0.00587  -0.10631   0.66533   0.60092   0.01077
   5        4PY        -0.00348   0.25755  -0.61684   0.70582   0.08951
   6        4PZ         0.03856  -0.00583   0.05635  -0.06739   0.99398
   7        5PX        -0.00053   0.00022  -0.00154  -0.00073   0.00069
   8        5PY         0.00012  -0.00652  -0.00470   0.00991   0.00151
   9        5PZ         0.00257   0.00013  -0.00064  -0.00054   0.00080
  10        6PX         0.00008  -0.00010  -0.00047   0.00069   0.00010
  11        6PY        -0.00001   0.00293   0.00363  -0.00399  -0.00049
  12        6PZ        -0.00257   0.00001   0.00040   0.00016   0.00177
  13        7D 0        0.00007   0.00240  -0.00607   0.00500   0.00104
  14        7D+1       -0.00083  -0.00046   0.00170   0.00060   0.00067
  15        7D-1       -0.00037   0.00068  -0.00199   0.00129  -0.00532
  16        7D+2       -0.00018   0.00275  -0.00580   0.00433   0.00059
  17        7D-2       -0.00016   0.00158  -0.01234  -0.00351  -0.00051
  18        8D 0        0.00006   0.00025   0.00286   0.00147  -0.00029
  19        8D+1       -0.00168   0.00046   0.00046   0.00037   0.00134
  20        8D-1       -0.00057  -0.00106  -0.00004   0.00005  -0.00088
  21        8D+2        0.00073  -0.00181   0.00594   0.00496  -0.00012
  22        8D-2        0.00034   0.00344   0.00574  -0.00350  -0.00141
  23 2   Ti 1S          0.00002  -0.00151  -0.00284  -0.00238   0.00027
  24        2S         -0.00005   0.00404   0.00744   0.00818  -0.00032
  25        3S         -0.00003   0.00394  -0.00088   0.00137   0.00115
  26        4PX         0.00144  -0.16109   0.15717   0.17388   0.00229
  27        4PY        -0.03062   0.92863   0.27468  -0.12264  -0.01456
  28        4PZ         0.99804   0.03109   0.00003  -0.00139  -0.03998
  29        5PX        -0.00029  -0.00713  -0.00221   0.00008   0.00071
  30        5PY        -0.00008   0.00865   0.00604  -0.00913  -0.00141
  31        5PZ        -0.00304   0.00017   0.00088   0.00020   0.00134
  32        6PX         0.00003  -0.00143   0.00205  -0.00072  -0.00008
  33        6PY        -0.00004  -0.00529  -0.00418   0.00500   0.00062
  34        6PZ         0.00503  -0.00003  -0.00060  -0.00012  -0.00189
  35        7D 0       -0.00004   0.00155   0.00236   0.00246  -0.00006
  36        7D+1        0.00065  -0.00004   0.00007   0.00006   0.00085
  37        7D-1       -0.00100  -0.00006  -0.00004  -0.00003   0.00009
  38        7D+2       -0.00003   0.00069  -0.00216  -0.00410  -0.00009
  39        7D-2       -0.00012   0.00181  -0.00227  -0.00125   0.00015
  40        8D 0       -0.00001   0.00080  -0.00239  -0.00230  -0.00015
  41        8D+1        0.00028  -0.00024   0.00093   0.00037   0.00224
  42        8D-1       -0.00047  -0.00021   0.00086  -0.00016   0.00009
  43        8D+2        0.00001   0.00220  -0.01071  -0.00832   0.00235
  44        8D-2       -0.00019   0.00072  -0.00221  -0.01157  -0.00124
  45 3   Ti 1S          0.00011   0.00114   0.00048   0.00055   0.00004
  46        2S          0.00020  -0.00265  -0.00077  -0.00217   0.00049
  47        3S         -0.00010  -0.00767   0.00302   0.00008  -0.00024
  48        4PX         0.00226  -0.02873  -0.16208  -0.26906   0.01325
  49        4PY        -0.00158   0.09802   0.06432   0.08306  -0.01353
  50        4PZ         0.02131  -0.00078  -0.00027  -0.00466  -0.00149
  51        5PX        -0.00055  -0.00348   0.00241   0.00106  -0.00020
  52        5PY         0.00001  -0.00685  -0.00263   0.00050  -0.00003
  53        5PZ         0.00252   0.00002   0.00007   0.00007   0.00020
  54        6PX         0.00009  -0.00023  -0.00048  -0.00035  -0.00003
  55        6PY         0.00002   0.00305   0.00187  -0.00176  -0.00012
  56        6PZ        -0.00257   0.00007   0.00013   0.00002   0.00048
  57        7D 0       -0.00008  -0.00114   0.00001  -0.00030   0.00011
  58        7D+1        0.00084   0.00020   0.00051   0.00074  -0.00011
  59        7D-1        0.00026  -0.00032  -0.00028  -0.00044   0.00002
  60        7D+2        0.00015  -0.00125  -0.00202  -0.00211   0.00012
  61        7D-2        0.00008   0.00038  -0.00253  -0.00469   0.00023
  62        8D 0       -0.00011   0.00015  -0.00054  -0.00012  -0.00016
  63        8D+1        0.00186  -0.00049  -0.00001   0.00001   0.00044
  64        8D-1        0.00010   0.00095   0.00041   0.00012   0.00001
  65        8D+2       -0.00067  -0.00120   0.00205   0.00219  -0.00019
  66        8D-2       -0.00053  -0.00448  -0.00120   0.00070  -0.00026
  67 4   O  1S          0.00052  -0.00945   0.00075   0.00482   0.00017
  68        2S         -0.00123   0.02110  -0.00127  -0.01009  -0.00023
  69        3S         -0.00050   0.01447  -0.00155  -0.00973  -0.00097
  70        4PX        -0.00094   0.01348   0.00154  -0.00333  -0.00014
  71        4PY         0.00059  -0.00899   0.00298   0.00725   0.00005
  72        4PZ         0.00453   0.00070  -0.00008  -0.00039  -0.00023
  73        5PX         0.00051  -0.00488  -0.00368  -0.00376   0.00033
  74        5PY        -0.00030   0.00261  -0.00204  -0.00200   0.00059
  75        5PZ         0.00078  -0.00004  -0.00013  -0.00002   0.00033
  76 5   O  1S          0.00037   0.01052   0.00772   0.00488  -0.00050
  77        2S         -0.00092  -0.02390  -0.01679  -0.01075   0.00102
  78        3S         -0.00024  -0.01398  -0.01205  -0.00521   0.00107
  79        4PX        -0.00062  -0.01106  -0.00144   0.00649  -0.00028
  80        4PY        -0.00087  -0.01297  -0.01060  -0.00674   0.00059
  81        4PZ         0.00541  -0.00111  -0.00105  -0.00080  -0.00018
  82        5PX         0.00047   0.00518  -0.00063  -0.00227   0.00077
  83        5PY         0.00041   0.00418   0.00303   0.00244  -0.00022
  84        5PZ         0.00018   0.00025   0.00034   0.00010   0.00021
  85 6   O  1S         -0.00026  -0.01154   0.01061   0.00121  -0.00184
  86        2S          0.00066   0.02551  -0.02289  -0.00306   0.00420
  87        3S          0.00025   0.01827  -0.01363   0.00117   0.00218
  88        4PX        -0.00058  -0.00539  -0.02556   0.00119   0.00374
  89        4PY        -0.00069  -0.01434   0.01028   0.00451  -0.00206
  90        4PZ         0.00450  -0.00147   0.00222  -0.00015   0.00470
  91        5PX         0.00035   0.00232   0.01102   0.00207  -0.00193
  92        5PY         0.00031   0.00412   0.00036  -0.00046   0.00049
  93        5PZ         0.00081   0.00041  -0.00043   0.00006   0.00121
  94 7   O  1S         -0.00061   0.01357   0.00013   0.01018   0.00036
  95        2S          0.00148  -0.03105  -0.00047  -0.02293  -0.00069
  96        3S          0.00036  -0.01595  -0.00022  -0.01461  -0.00116
  97        4PX        -0.00105   0.01656   0.00447  -0.02134  -0.00088
  98        4PY         0.00063  -0.01244  -0.00134  -0.01707  -0.00035
  99        4PZ         0.00634   0.00079   0.00025   0.00078   0.00483
 100        5PX         0.00064  -0.00778   0.00631   0.01325   0.00024
 101        5PY        -0.00029   0.00283   0.00084   0.00530  -0.00011
 102        5PZ        -0.00009  -0.00010   0.00011  -0.00028   0.00024
 103 8   O  1S         -0.00028   0.00845  -0.02909   0.00508   0.00016
 104        2S          0.00058  -0.01918   0.06304  -0.01055  -0.00010
 105        3S          0.00053  -0.00584   0.03005  -0.00484  -0.00119
 106        4PX        -0.00033   0.01013  -0.03000   0.01266   0.00032
 107        4PY         0.00041  -0.01002   0.03774   0.00033   0.00082
 108        4PZ         0.00043   0.00096  -0.00251  -0.00014   0.01133
 109        5PX         0.00011  -0.00345   0.00538   0.00094   0.00002
 110        5PY        -0.00020   0.00209  -0.00669  -0.00147  -0.00029
 111        5PZ        -0.00019  -0.00082  -0.00003  -0.00012  -0.00135
 112 9   O  1S          0.00014  -0.00301  -0.00508  -0.00792   0.00062
 113        2S         -0.00025   0.00735   0.01121   0.01723  -0.00134
 114        3S         -0.00056   0.00015   0.00408   0.00745  -0.00076
 115        4PX        -0.00020   0.00396   0.00479   0.00711  -0.00068
 116        4PY         0.00022  -0.00329  -0.00700  -0.01110   0.00080
 117        4PZ         0.00024   0.00050   0.00070   0.00101  -0.00011
 118        5PX         0.00012  -0.00256  -0.00130  -0.00146   0.00021
 119        5PY        -0.00012   0.00017   0.00152   0.00202  -0.00014
 120        5PZ         0.00001  -0.00076  -0.00029  -0.00014   0.00008
                          16        17        18        19        20
                           O         O         O         O         O
     Eigenvalues --    -1.55687  -1.54894  -1.54587  -0.90955  -0.89444
   1 1   Ti 1S          0.00114  -0.00100  -0.00009   0.05718  -0.00480
   2        2S          0.00011  -0.00127   0.00004  -0.08989   0.00635
   3        3S          0.00457  -0.00297   0.00042  -0.04783  -0.02916
   4        4PX        -0.21964   0.11021  -0.00309   0.07788  -0.02159
   5        4PY        -0.10467   0.04789  -0.00020   0.07217  -0.08092
   6        4PZ         0.02853  -0.00660   0.00167  -0.01042  -0.00159
   7        5PX        -0.00312   0.00271  -0.00027   0.02188   0.01850
   8        5PY        -0.00138   0.00187  -0.00006   0.00360   0.01577
   9        5PZ         0.00021  -0.00021   0.00042   0.00096  -0.00015
  10        6PX         0.00048  -0.00083   0.00000   0.00118  -0.00177
  11        6PY        -0.00098  -0.00120  -0.00013   0.00046  -0.00223
  12        6PZ        -0.00018   0.00016   0.00035  -0.00052   0.00003
  13        7D 0        0.00005  -0.00051   0.00005  -0.04228   0.00183
  14        7D+1       -0.00025   0.00007   0.00007  -0.00297  -0.00049
  15        7D-1       -0.00019   0.00006   0.00000  -0.00176   0.00291
  16        7D+2       -0.00120   0.00095   0.00000   0.00299   0.01018
  17        7D-2        0.00216  -0.00083   0.00004  -0.00755  -0.05727
  18        8D 0       -0.00144   0.00115   0.00009  -0.01188   0.00246
  19        8D+1        0.00001   0.00003  -0.00060  -0.00032  -0.00026
  20        8D-1        0.00005   0.00003  -0.00001   0.00079   0.00078
  21        8D+2       -0.00042  -0.00003   0.00008  -0.00397  -0.00006
  22        8D-2        0.00015  -0.00041   0.00020  -0.02582  -0.00581
  23 2   Ti 1S         -0.00106   0.00241  -0.00020   0.09565   0.00458
  24        2S          0.00213  -0.00718   0.00029  -0.12342  -0.00787
  25        3S         -0.00259  -0.00069  -0.00105   0.05740   0.00107
  26        4PX        -0.20017   0.21994  -0.00648  -0.02856   0.09468
  27        4PY        -0.13266  -0.01423  -0.00817   0.03733  -0.00407
  28        4PZ        -0.00016  -0.00037  -0.02286   0.00025   0.00317
  29        5PX         0.00114   0.00146   0.00052  -0.00158   0.03360
  30        5PY        -0.00422  -0.00748  -0.00125  -0.00517   0.01068
  31        5PZ        -0.00099   0.00070   0.00093   0.00001  -0.00070
  32        6PX        -0.00293   0.00139  -0.00014  -0.00110   0.00912
  33        6PY         0.00346   0.00367   0.00055   0.00025  -0.00010
  34        6PZ         0.00063  -0.00049  -0.00149   0.00002  -0.00044
  35        7D 0        0.00063  -0.00219   0.00004  -0.05944  -0.00323
  36        7D+1        0.00007  -0.00005  -0.00087   0.00426   0.00203
  37        7D-1        0.00003  -0.00001  -0.00003   0.00177   0.00456
  38        7D+2       -0.00093   0.00320   0.00002   0.02185  -0.02698
  39        7D-2       -0.00094  -0.00066  -0.00012  -0.01394   0.10061
  40        8D 0       -0.00119   0.00097   0.00016  -0.02871  -0.00178
  41        8D+1        0.00076  -0.00033  -0.00247   0.00106  -0.00012
  42        8D-1        0.00079   0.00022   0.00011  -0.00069   0.00146
  43        8D+2       -0.00620   0.00692  -0.00209   0.01814  -0.00051
  44        8D-2        0.00424   0.00749   0.00110  -0.02360   0.00138
  45 3   Ti 1S          0.00373   0.00624  -0.00082   0.05228   0.04463
  46        2S         -0.02561  -0.01447   0.00191  -0.08414  -0.05708
  47        3S         -0.00411  -0.00019   0.00085  -0.05340   0.01961
  48        4PX        -0.57321   0.70411  -0.00235  -0.07342  -0.02547
  49        4PY         0.71141   0.65513   0.07168  -0.05516   0.03222
  50        4PZ        -0.05597  -0.04370   0.99598   0.01127   0.01006
  51        5PX         0.00050   0.00221   0.00052  -0.02510   0.02262
  52        5PY         0.00547   0.00837   0.00126  -0.00534  -0.00738
  53        5PZ         0.00054  -0.00074   0.00189  -0.00085  -0.00177
  54        6PX         0.00090  -0.00038   0.00008  -0.00102  -0.00255
  55        6PY        -0.00371  -0.00294  -0.00040  -0.00024   0.00204
  56        6PZ        -0.00032   0.00035   0.00116   0.00052   0.00054
  57        7D 0       -0.00741  -0.00517  -0.00098  -0.03896  -0.02781
  58        7D+1        0.00179  -0.00100  -0.00041  -0.00278  -0.00176
  59        7D-1       -0.00246  -0.00121   0.00580  -0.00189   0.00119
  60        7D+2       -0.00694  -0.00471  -0.00049   0.00445   0.01300
  61        7D-2       -0.01164   0.00680   0.00062  -0.01551  -0.06912
  62        8D 0        0.00288  -0.00230   0.00024  -0.00977  -0.01138
  63        8D+1        0.00018  -0.00049  -0.00119  -0.00028  -0.00100
  64        8D-1        0.00023   0.00011   0.00091   0.00089   0.00123
  65        8D+2        0.00467  -0.00420   0.00006  -0.00437   0.00500
  66        8D-2        0.00622   0.00127   0.00118  -0.02326  -0.01606
  67 4   O  1S         -0.00488  -0.01478  -0.00017  -0.10292   0.04604
  68        2S          0.01024   0.03352   0.00023   0.21940  -0.09770
  69        3S          0.00835   0.01630   0.00089   0.19653  -0.10218
  70        4PX        -0.00548  -0.02093  -0.00015   0.01277  -0.01223
  71        4PY        -0.00450  -0.02310   0.00012  -0.04273   0.02151
  72        4PZ         0.00013   0.00141   0.00607   0.00198  -0.00151
  73        5PX        -0.00408   0.01252   0.00009  -0.00731  -0.00026
  74        5PY         0.00114   0.00458  -0.00011  -0.01880   0.00770
  75        5PZ        -0.00012  -0.00030   0.00007   0.00085  -0.00099
  76 5   O  1S          0.01107  -0.00179   0.00184  -0.10050  -0.15584
  77        2S         -0.02326   0.00412  -0.00415   0.21363   0.32679
  78        3S         -0.01705  -0.00056  -0.00230   0.19429   0.33079
  79        4PX         0.02515  -0.00423   0.00371  -0.00611  -0.01148
  80        4PY        -0.00936   0.00435  -0.00198   0.04116   0.05984
  81        4PZ        -0.00221   0.00013   0.00483   0.00378   0.00567
  82        5PX        -0.00942   0.00396  -0.00174   0.00602  -0.00005
  83        5PY        -0.00178   0.00150   0.00041   0.01893   0.03131
  84        5PZ         0.00040   0.00011   0.00135  -0.00008   0.00225
  85 6   O  1S          0.00105  -0.00069   0.00012  -0.08704  -0.08562
  86        2S         -0.00181   0.00163  -0.00019   0.18668   0.18023
  87        3S         -0.00480   0.00045  -0.00051   0.16154   0.18378
  88        4PX         0.00504  -0.00237   0.00016   0.00605   0.00123
  89        4PY         0.00181  -0.00178   0.00019  -0.03722  -0.03446
  90        4PZ         0.00021  -0.00007  -0.00011  -0.00341  -0.00325
  91        5PX        -0.00047  -0.00026   0.00057  -0.00656   0.00468
  92        5PY        -0.00137   0.00305  -0.00017  -0.01401  -0.01591
  93        5PZ        -0.00011  -0.00000   0.00016   0.00072  -0.00184
  94 7   O  1S         -0.00173  -0.00194  -0.00002  -0.15101   0.14555
  95        2S          0.00414   0.00376  -0.00007   0.31856  -0.30252
  96        3S          0.00228   0.00505   0.00064   0.30414  -0.32536
  97        4PX         0.00527  -0.00623   0.00001  -0.01536   0.01294
  98        4PY         0.00238   0.00212  -0.00005   0.06015  -0.05687
  99        4PZ        -0.00009  -0.00005  -0.00018  -0.00225   0.00248
 100        5PX        -0.00340   0.00119   0.00013   0.00249   0.00653
 101        5PY         0.00085  -0.00172   0.00059   0.03283  -0.03437
 102        5PZ         0.00011   0.00006   0.00051  -0.00143   0.00179
 103 8   O  1S          0.00195  -0.00112   0.00006  -0.04741  -0.01369
 104        2S         -0.00440   0.00252  -0.00016   0.10695   0.03056
 105        3S         -0.00205   0.00125   0.00012   0.06835   0.02425
 106        4PX         0.00020  -0.00033   0.00003  -0.01623  -0.00136
 107        4PY        -0.00416   0.00224  -0.00008   0.01481   0.01342
 108        4PZ         0.00052  -0.00019   0.00002  -0.00176  -0.00138
 109        5PX        -0.00103   0.00071   0.00002  -0.00414   0.00309
 110        5PY         0.00071  -0.00037   0.00002  -0.00348  -0.00002
 111        5PZ         0.00000   0.00001   0.00009   0.00185   0.00033
 112 9   O  1S         -0.03063  -0.00145   0.00048  -0.04394  -0.05427
 113        2S          0.06592   0.00244  -0.00124   0.09958   0.11870
 114        3S          0.03196   0.00134   0.00048   0.06184   0.09429
 115        4PX         0.03292   0.00939  -0.00062   0.01547   0.01401
 116        4PY        -0.03813   0.00565   0.00161  -0.01503  -0.02607
 117        4PZ         0.00346  -0.00023   0.01165   0.00217   0.00329
 118        5PX        -0.00547   0.00255   0.00006   0.00144   0.00248
 119        5PY         0.00588  -0.00189  -0.00036   0.00307  -0.00106
 120        5PZ        -0.00019  -0.00024  -0.00116  -0.00205  -0.00139
                          21        22        23        24        25
                           O         O         O         O         O
     Eigenvalues --    -0.88621  -0.87477  -0.84193  -0.83476  -0.39615
   1 1   Ti 1S          0.07894   0.00877   0.04701  -0.01210   0.01447
   2        2S         -0.09618  -0.01025  -0.05749   0.01171  -0.01341
   3        3S          0.07046  -0.01448   0.01185  -0.02603  -0.09356
   4        4PX         0.02592  -0.02265  -0.19080   0.08703   0.01417
   5        4PY         0.03591  -0.05088   0.18042  -0.06989  -0.03714
   6        4PZ        -0.01376  -0.00338  -0.00620   0.00117   0.00035
   7        5PX        -0.06120   0.00597   0.00043   0.01097   0.06894
   8        5PY        -0.00773   0.00557  -0.02210   0.01157   0.03273
   9        5PZ         0.00325   0.00037   0.00212  -0.00089  -0.00223
  10        6PX         0.00719   0.00058   0.00100  -0.00262   0.00121
  11        6PY        -0.00184  -0.00250  -0.00097   0.00295  -0.00251
  12        6PZ        -0.00094  -0.00023  -0.00035  -0.00007  -0.00042
  13        7D 0       -0.04821  -0.00631  -0.03403   0.00798  -0.01864
  14        7D+1       -0.00212  -0.00022   0.00959  -0.00458  -0.00357
  15        7D-1       -0.00063   0.00190  -0.00929   0.00385   0.00800
  16        7D+2        0.00437   0.00777  -0.02264   0.00943   0.17437
  17        7D-2       -0.07071  -0.05928  -0.06707   0.02340  -0.05419
  18        8D 0       -0.02065  -0.00127  -0.00757  -0.00117  -0.00363
  19        8D+1       -0.00166  -0.00068   0.00037  -0.00059  -0.00098
  20        8D-1        0.00135   0.00127  -0.00152   0.00128   0.00262
  21        8D+2        0.00813  -0.00199  -0.00095  -0.00247   0.02905
  22        8D-2       -0.01657  -0.00318  -0.01109  -0.00226  -0.02507
  23 2   Ti 1S         -0.00295   0.00063  -0.04005  -0.01712   0.15211
  24        2S          0.00373  -0.00220   0.03854   0.01652  -0.10744
  25        3S         -0.00205   0.00142  -0.01657  -0.00605   0.08376
  26        4PX        -0.15478   0.07467   0.03450  -0.08886  -0.00534
  27        4PY        -0.05014  -0.16426   0.02610  -0.04235   0.00005
  28        4PZ        -0.00722  -0.00179   0.00219  -0.00502  -0.00040
  29        5PX        -0.10188   0.00783  -0.02066   0.05867  -0.00162
  30        5PY        -0.01972   0.03403  -0.00719   0.01181   0.01056
  31        5PZ         0.00177  -0.00036  -0.00065   0.00193   0.00007
  32        6PX        -0.02645   0.00402  -0.00317   0.00910   0.00281
  33        6PY         0.00170   0.00109   0.00255  -0.00613  -0.00246
  34        6PZ         0.00136   0.00018   0.00004  -0.00038   0.00003
  35        7D 0        0.00215  -0.00094   0.02153   0.00940  -0.15455
  36        7D+1        0.00022   0.00013  -0.00234  -0.00109   0.00725
  37        7D-1        0.00141  -0.00071  -0.00206  -0.00077  -0.00909
  38        7D+2       -0.01071   0.00572   0.00131  -0.00062   0.17605
  39        7D-2        0.03108  -0.01302  -0.01837  -0.00600  -0.16785
  40        8D 0        0.00039  -0.00111   0.01670   0.00663  -0.03580
  41        8D+1       -0.00012   0.00019  -0.00138  -0.00063   0.00110
  42        8D-1        0.00069  -0.00061  -0.00261  -0.00092  -0.00199
  43        8D+2       -0.00041   0.00201   0.00429   0.00072   0.11707
  44        8D-2        0.00519  -0.00687  -0.00393   0.00032   0.00178
  45 3   Ti 1S         -0.06961   0.01343   0.02869   0.04581   0.01910
  46        2S          0.08741  -0.01996  -0.03731  -0.05372  -0.01671
  47        3S         -0.06865   0.01056  -0.00683   0.02773  -0.08626
  48        4PX         0.04624  -0.02871   0.07869   0.20357  -0.01756
  49        4PY         0.08784  -0.11551  -0.07534  -0.16562   0.04561
  50        4PZ        -0.01217   0.00006   0.00575   0.00890  -0.00077
  51        5PX        -0.05783   0.00903  -0.00603   0.00888  -0.06276
  52        5PY        -0.01426   0.00965   0.00826   0.02329  -0.03036
  53        5PZ         0.00282  -0.00034  -0.00129  -0.00265   0.00233
  54        6PX         0.00686  -0.00052   0.00095  -0.00287  -0.00299
  55        6PY        -0.00057  -0.00291  -0.00123   0.00268   0.00328
  56        6PZ        -0.00082  -0.00001   0.00041   0.00027   0.00039
  57        7D 0        0.04179  -0.00847  -0.02071  -0.03170  -0.02051
  58        7D+1        0.00152  -0.00011   0.00428   0.01143  -0.00334
  59        7D-1        0.00342  -0.00445  -0.00446  -0.01017   0.01160
  60        7D+2        0.00345  -0.01750  -0.00773  -0.01944   0.18654
  61        7D-2        0.01584   0.06970  -0.04069  -0.07849  -0.06312
  62        8D 0        0.01830  -0.00492  -0.00699  -0.00555  -0.00615
  63        8D+1        0.00101   0.00061  -0.00011   0.00076  -0.00077
  64        8D-1       -0.00049  -0.00140  -0.00031  -0.00207   0.00271
  65        8D+2       -0.00713   0.00377  -0.00236   0.00158   0.03323
  66        8D-2        0.01196  -0.00356  -0.01026  -0.00740  -0.02306
  67 4   O  1S          0.11753  -0.17200   0.00849   0.04302   0.01988
  68        2S         -0.24287   0.35547  -0.01872  -0.08958  -0.04037
  69        3S         -0.25858   0.38530  -0.01531  -0.09978  -0.07059
  70        4PX        -0.00114   0.00442  -0.00957  -0.01644   0.29169
  71        4PY         0.04290  -0.06096   0.00695   0.02461  -0.15891
  72        4PZ        -0.00200   0.00359  -0.00054  -0.00130   0.00270
  73        5PX        -0.00538   0.00912   0.00289  -0.00041   0.13752
  74        5PY         0.02909  -0.04307   0.00277   0.01172  -0.05378
  75        5PZ        -0.00131   0.00267   0.00030  -0.00032   0.00105
  76 5   O  1S          0.07462   0.09838   0.01629   0.09065   0.01635
  77        2S         -0.15496  -0.20240  -0.03319  -0.18310  -0.03326
  78        3S         -0.15671  -0.22514  -0.03698  -0.21763  -0.07121
  79        4PX         0.01612   0.00794  -0.01366  -0.01321  -0.08216
  80        4PY        -0.02461  -0.02966  -0.00630  -0.02318   0.13748
  81        4PZ        -0.00264  -0.00312   0.00085   0.00066   0.00979
  82        5PX        -0.00721   0.00626   0.01153   0.01003  -0.01478
  83        5PY        -0.01804  -0.02448  -0.00387  -0.02626   0.05089
  84        5PZ        -0.00025  -0.00307  -0.00145  -0.00327   0.00349
  85 6   O  1S         -0.15268  -0.08280   0.09850  -0.05782   0.01479
  86        2S          0.31950   0.17100  -0.20060   0.11739  -0.02988
  87        3S          0.32116   0.18465  -0.22988   0.13674  -0.06638
  88        4PX         0.02167   0.01090   0.01443   0.00082   0.05155
  89        4PY        -0.05448  -0.02475   0.02727  -0.01363  -0.12030
  90        4PZ        -0.00562  -0.00284  -0.00005  -0.00037  -0.00853
  91        5PX        -0.00442   0.00006  -0.01651  -0.00005  -0.00050
  92        5PY        -0.03137  -0.02165   0.02606  -0.01643  -0.04438
  93        5PZ        -0.00176  -0.00198   0.00365  -0.00138  -0.00322
  94 7   O  1S         -0.02992   0.11151   0.01870  -0.02114   0.02294
  95        2S          0.05959  -0.22848  -0.03980   0.04312  -0.04636
  96        3S          0.06867  -0.26039  -0.03933   0.05373  -0.08022
  97        4PX         0.00842   0.00183   0.01409  -0.00298  -0.27951
  98        4PY         0.00765  -0.03696  -0.01456   0.01040   0.20399
  99        4PZ         0.00003   0.00192   0.00050  -0.00029   0.00038
 100        5PX        -0.00456   0.00835  -0.00211  -0.00143  -0.13033
 101        5PY         0.00981  -0.03054  -0.00634   0.00630   0.06990
 102        5PZ         0.00015   0.00141  -0.00033  -0.00025   0.00058
 103 8   O  1S         -0.09665  -0.03285  -0.20053   0.07654  -0.00487
 104        2S          0.20936   0.07202   0.42726  -0.16138   0.01651
 105        3S          0.17934   0.06256   0.42561  -0.17120  -0.00157
 106        4PX        -0.02501  -0.00597  -0.03238   0.01075   0.12988
 107        4PY         0.03462   0.01762   0.04591  -0.01647   0.11945
 108        4PZ        -0.00354  -0.00178  -0.00246   0.00058  -0.00829
 109        5PX        -0.00705   0.00369  -0.01503   0.00612   0.06084
 110        5PY         0.00585   0.00388   0.02257  -0.01007   0.04141
 111        5PZ         0.00148   0.00064  -0.00145   0.00150  -0.00106
 112 9   O  1S          0.06514   0.00807  -0.09511  -0.20145  -0.00498
 113        2S         -0.14110  -0.01786   0.20391   0.42811   0.01680
 114        3S         -0.11768  -0.01804   0.19442   0.43193  -0.00070
 115        4PX        -0.01971   0.00173   0.01640   0.03078  -0.13625
 116        4PY         0.01753   0.01522  -0.02391  -0.04760  -0.13209
 117        4PZ        -0.00226  -0.00183   0.00199   0.00318   0.01126
 118        5PX        -0.00719   0.00712   0.00644   0.01430  -0.06129
 119        5PY         0.00276   0.00446  -0.00946  -0.02287  -0.04480
 120        5PZ         0.00122   0.00017   0.00003   0.00233   0.00213
                          26        27        28        29        30
                           O         O         O         O         O
     Eigenvalues --    -0.38123  -0.37810  -0.36784  -0.35372  -0.34692
   1 1   Ti 1S          0.02026  -0.10472  -0.08874  -0.03437  -0.01202
   2        2S         -0.02187   0.08505   0.06947   0.02947   0.00921
   3        3S         -0.05166   0.03782   0.02618   0.04887   0.02119
   4        4PX         0.05909  -0.06801  -0.02179   0.02696  -0.00042
   5        4PY         0.06155  -0.03618   0.02777  -0.01858  -0.00965
   6        4PZ        -0.00210   0.00616   0.00208  -0.00121  -0.04961
   7        5PX         0.03926   0.03924   0.03517   0.03697  -0.00523
   8        5PY        -0.02902  -0.02071  -0.02944  -0.01717  -0.00236
   9        5PZ         0.00121  -0.00073   0.00425   0.00511   0.03638
  10        6PX         0.00308  -0.00497  -0.01308   0.00772  -0.00166
  11        6PY         0.00328   0.00064  -0.00323  -0.01526  -0.00126
  12        6PZ        -0.00051   0.00070   0.00067   0.00212  -0.00659
  13        7D 0       -0.01310   0.12044   0.11282   0.07023   0.03415
  14        7D+1       -0.00704   0.02167   0.01581  -0.00549  -0.16332
  15        7D-1       -0.01864  -0.00095  -0.01859  -0.00122  -0.01904
  16        7D+2        0.04385   0.07604  -0.14260   0.19421  -0.01103
  17        7D-2        0.21475  -0.01528   0.20248   0.20276   0.00896
  18        8D 0       -0.00501   0.01693   0.01381  -0.00621   0.00751
  19        8D+1       -0.00037   0.00501   0.00294  -0.00136  -0.04306
  20        8D-1       -0.00380  -0.00345  -0.00368  -0.00095   0.00020
  21        8D+2        0.01002  -0.00022  -0.05051   0.05100  -0.00257
  22        8D-2        0.00757   0.01124   0.01346   0.00361   0.00357
  23 2   Ti 1S          0.09134   0.11099   0.01047   0.00379  -0.01054
  24        2S         -0.06407  -0.07305  -0.00354  -0.00152   0.00770
  25        3S          0.04535   0.02363  -0.01027  -0.00677  -0.02198
  26        4PX         0.02122  -0.01652   0.08123  -0.15528   0.00180
  27        4PY        -0.02438   0.05632  -0.09752  -0.04723   0.00175
  28        4PZ         0.00049   0.00179  -0.00343  -0.01238  -0.00863
  29        5PX         0.00230  -0.01259   0.04658   0.04985   0.00039
  30        5PY         0.01518  -0.02665   0.08168   0.04297  -0.00140
  31        5PZ         0.00038  -0.00024   0.00120   0.00473   0.00644
  32        6PX         0.00088  -0.00330   0.02630  -0.04109   0.00141
  33        6PY        -0.00184  -0.00149  -0.00044   0.01953  -0.00050
  34        6PZ        -0.00000   0.00047  -0.00083  -0.00512  -0.00240
  35        7D 0       -0.08496  -0.11369  -0.00691  -0.00349   0.02917
  36        7D+1        0.01858   0.00992  -0.00070   0.00168   0.30967
  37        7D-1        0.02433   0.01607  -0.00006   0.00180   0.01905
  38        7D+2        0.06474  -0.20736  -0.08937  -0.00373   0.00948
  39        7D-2        0.33408   0.01123  -0.06082  -0.02236  -0.03640
  40        8D 0       -0.02411  -0.01941  -0.00300  -0.00193   0.00917
  41        8D+1        0.00516  -0.00111  -0.00137   0.00110   0.11565
  42        8D-1        0.00057   0.00323   0.00137   0.00183   0.01090
  43        8D+2        0.09251  -0.04306  -0.04392  -0.01015  -0.01027
  44        8D-2        0.03484   0.03384   0.00079   0.01132   0.00377
  45 3   Ti 1S          0.01539  -0.11878  -0.01105   0.01129  -0.01005
  46        2S         -0.01811   0.09594   0.01532  -0.01152   0.00812
  47        3S         -0.05683   0.03653   0.06275  -0.02408   0.02452
  48        4PX        -0.04373   0.05692   0.04000   0.02706  -0.00278
  49        4PY        -0.03921  -0.01163   0.06527  -0.01078   0.00830
  50        4PZ         0.00206  -0.00623  -0.00388  -0.00128   0.04506
  51        5PX        -0.04331  -0.05587   0.03829   0.03620   0.00591
  52        5PY         0.02126   0.03450  -0.01232  -0.01097   0.00302
  53        5PZ        -0.00052  -0.00223   0.00295   0.00429  -0.03131
  54        6PX        -0.00314   0.00811  -0.00816   0.00924   0.00072
  55        6PY        -0.00249   0.00251  -0.00031  -0.01415   0.00206
  56        6PZ         0.00047  -0.00107  -0.00031   0.00189   0.00726
  57        7D 0       -0.01323   0.13891   0.01427  -0.03628   0.03144
  58        7D+1       -0.00773   0.02395   0.00842   0.00518  -0.15046
  59        7D-1       -0.01238  -0.01381   0.02040   0.00112  -0.00420
  60        7D+2        0.08151  -0.00606   0.13757  -0.18806  -0.00400
  61        7D-2        0.13230   0.15590  -0.18547  -0.15502   0.02133
  62        8D 0       -0.00231   0.01788  -0.00251   0.00999   0.00584
  63        8D+1       -0.00004   0.00524   0.00154   0.00091  -0.03881
  64        8D-1       -0.00374  -0.00505   0.00226   0.00115   0.00437
  65        8D+2        0.01859  -0.02086   0.03942  -0.05164   0.00042
  66        8D-2        0.00644   0.01665  -0.00262   0.00087   0.00371
  67 4   O  1S          0.00738   0.00028  -0.01066  -0.00668   0.00160
  68        2S         -0.01786   0.00020   0.01927   0.01945  -0.00403
  69        3S         -0.03337   0.00471   0.03948   0.00321  -0.00007
  70        4PX        -0.11353   0.06759   0.31537  -0.10773   0.00810
  71        4PY        -0.11964   0.07385   0.11301   0.19391  -0.02290
  72        4PZ        -0.00577  -0.00107   0.00653   0.00791  -0.25296
  73        5PX        -0.04164   0.03661   0.16463  -0.05524   0.00227
  74        5PY        -0.04815   0.03592   0.04243   0.10482  -0.01353
  75        5PZ        -0.00160  -0.00084   0.00370   0.00408  -0.11889
  76 5   O  1S          0.02182  -0.00734   0.00867  -0.00423  -0.00310
  77        2S         -0.04520   0.01699  -0.01627   0.01425   0.00653
  78        3S         -0.07026   0.01263  -0.03085   0.01055   0.00695
  79        4PX         0.17709   0.39205  -0.11742  -0.17117  -0.01598
  80        4PY         0.27362  -0.06882   0.05401  -0.14379  -0.00664
  81        4PZ         0.00039  -0.00997   0.01644   0.01412  -0.27354
  82        5PX         0.09553   0.17904  -0.06911  -0.09495  -0.01333
  83        5PY         0.11513  -0.03284   0.02095  -0.08760  -0.00134
  84        5PZ        -0.00148  -0.00540   0.00805   0.00830  -0.12721
  85 6   O  1S          0.01696   0.00092  -0.02381  -0.00284  -0.00296
  86        2S         -0.03626   0.00066   0.04981   0.00231   0.00639
  87        3S         -0.05722  -0.00790   0.07173   0.00104   0.00727
  88        4PX        -0.23240  -0.21153  -0.26048  -0.21729   0.02327
  89        4PY        -0.20975  -0.00385   0.22019  -0.08413   0.00965
  90        4PZ         0.00410  -0.00172   0.02315   0.02796   0.25340
  91        5PX        -0.12541  -0.08649  -0.12054  -0.10568   0.01749
  92        5PY        -0.09150   0.00727   0.09583  -0.05753   0.00362
  93        5PZ         0.00313   0.00001   0.01113   0.01456   0.11703
  94 7   O  1S          0.01086  -0.00722   0.00147   0.00991   0.00045
  95        2S         -0.02643   0.01530   0.00188  -0.02816  -0.00117
  96        3S         -0.04032   0.02463  -0.00715  -0.00220   0.00248
  97        4PX         0.26103  -0.27544   0.12856  -0.10322  -0.01303
  98        4PY         0.15881  -0.16596  -0.06128   0.22067   0.00825
  99        4PZ         0.00471  -0.00169   0.00391   0.00986   0.34946
 100        5PX         0.11685  -0.14800   0.07538  -0.05439  -0.00521
 101        5PY         0.06896  -0.07885  -0.03210   0.12143   0.00556
 102        5PZ         0.00095  -0.00057   0.00304   0.00519   0.16973
 103 8   O  1S         -0.00875  -0.01517  -0.01794  -0.02263  -0.00320
 104        2S          0.01726   0.02728   0.03302   0.04664   0.00522
 105        3S          0.02453   0.07170   0.07170   0.07535   0.01718
 106        4PX         0.04150   0.14008   0.00081   0.29667   0.01357
 107        4PY        -0.11522  -0.00380  -0.24773  -0.05927  -0.03792
 108        4PZ         0.02172   0.01947   0.04336   0.02904  -0.02188
 109        5PX         0.01018   0.05277  -0.00377   0.12559   0.00589
 110        5PY        -0.04855   0.01297  -0.08752  -0.01951  -0.01376
 111        5PZ         0.00995   0.00573   0.01817   0.01408   0.00029
 112 9   O  1S         -0.00658  -0.02394   0.00316   0.01721  -0.00409
 113        2S          0.01328   0.04366  -0.00688  -0.03692   0.00708
 114        3S          0.01922   0.10262  -0.00139  -0.05227   0.02002
 115        4PX        -0.06215  -0.12071  -0.09409   0.25241  -0.02495
 116        4PY         0.04274   0.14257  -0.18265  -0.00282   0.04169
 117        4PZ        -0.01473  -0.04462   0.02241   0.02420   0.02955
 118        5PX        -0.02010  -0.04161  -0.03815   0.10653  -0.01079
 119        5PY         0.01996   0.03795  -0.07381   0.00073   0.01527
 120        5PZ        -0.00640  -0.01649   0.01093   0.01211   0.00419
                          31        32        33        34        35
                           O         O         O         O         O
     Eigenvalues --    -0.34031  -0.32819  -0.32492  -0.32451  -0.32131
   1 1   Ti 1S          0.00353   0.03595   0.08971   0.06384   0.06226
   2        2S         -0.00593  -0.02614  -0.06105  -0.05078  -0.04571
   3        3S         -0.03281   0.02804   0.11916  -0.02249   0.05168
   4        4PX        -0.01444   0.00563   0.06395  -0.02104   0.02039
   5        4PY         0.00380   0.02253   0.03686   0.05748   0.03526
   6        4PZ        -0.04014  -0.01896   0.01443   0.02177  -0.04428
   7        5PX         0.00541  -0.04716  -0.11585  -0.05296  -0.07939
   8        5PY         0.00152   0.00668   0.00622  -0.00830  -0.00060
   9        5PZ         0.03186   0.01821  -0.01473  -0.02623   0.03852
  10        6PX         0.00055   0.00606   0.01569   0.01577   0.01181
  11        6PY         0.00255   0.00778   0.00646   0.01047   0.00956
  12        6PZ        -0.00252  -0.00230  -0.00200  -0.00073   0.00004
  13        7D 0       -0.00427  -0.04329  -0.10764  -0.11474  -0.06862
  14        7D+1        0.07350   0.21350  -0.00285  -0.03199  -0.10744
  15        7D-1       -0.20035  -0.20063   0.03229   0.07226  -0.05939
  16        7D+2        0.01334   0.00959  -0.02845   0.04497  -0.00336
  17        7D-2       -0.06894  -0.00031   0.11992  -0.15824  -0.01715
  18        8D 0        0.00514  -0.00554  -0.02107  -0.00780  -0.00433
  19        8D+1        0.02174   0.06559   0.00200  -0.00778  -0.04022
  20        8D-1       -0.05741  -0.05975   0.01090   0.02199  -0.01124
  21        8D+2        0.00257   0.01830   0.02626   0.03296   0.01914
  22        8D-2        0.00089   0.00626   0.01246   0.00592   0.01029
  23 2   Ti 1S          0.00876  -0.00217  -0.01445   0.02595   0.00207
  24        2S         -0.00758   0.00215   0.01287  -0.01951  -0.00029
  25        3S          0.02268  -0.00506  -0.04015   0.06648   0.00213
  26        4PX         0.00047  -0.02218  -0.03438  -0.02522  -0.02077
  27        4PY        -0.00028  -0.02734  -0.03816  -0.04022  -0.02837
  28        4PZ        -0.02410   0.04998   0.02373   0.02588  -0.08154
  29        5PX         0.00722  -0.07153  -0.18037  -0.10926  -0.13628
  30        5PY         0.00247  -0.00705  -0.02837  -0.00800  -0.02365
  31        5PZ         0.01787  -0.05276  -0.01486  -0.02018   0.07083
  32        6PX         0.00068  -0.01285  -0.04038  -0.02971  -0.02530
  33        6PY         0.00099  -0.01370  -0.01709  -0.00954  -0.01767
  34        6PZ        -0.00706   0.00977   0.00984   0.00816  -0.01975
  35        7D 0       -0.01764   0.00476   0.02103  -0.02705  -0.00142
  36        7D+1        0.04083   0.00236  -0.00645   0.03527  -0.01723
  37        7D-1       -0.20196   0.01019  -0.03433   0.03788  -0.00262
  38        7D+2       -0.02591   0.00442   0.04638  -0.09987  -0.01037
  39        7D-2        0.05344  -0.01716  -0.10256   0.14216   0.00125
  40        8D 0       -0.00316  -0.00049  -0.00135  -0.00285  -0.00251
  41        8D+1        0.01325  -0.00027  -0.00051   0.01302  -0.00933
  42        8D-1       -0.06320   0.00136  -0.00818   0.00457   0.00326
  43        8D+2       -0.00259  -0.00459  -0.01248   0.00257  -0.00053
  44        8D-2       -0.00590   0.00330   0.02410  -0.04432  -0.00336
  45 3   Ti 1S          0.01227  -0.04057  -0.11132  -0.06532  -0.07260
[...]
  10        6PX        -0.12141  -0.02274  -0.01850  -0.41057  -0.38155
  11        6PY        -0.00459   0.10208  -0.02588  -0.09151  -0.01365
  12        6PZ        -0.00039   0.00316  -0.02703   0.06418   0.04631
  13        7D 0        0.02516   0.00358  -0.15121   0.09260  -0.00311
  14        7D+1        0.00977  -0.00389  -0.00886   0.00049  -0.01003
  15        7D-1       -0.00261   0.00965  -0.00596   0.00090   0.00561
  16        7D+2        0.04734   0.04248   0.03575   0.07560   0.06650
  17        7D-2        0.02098  -0.13537  -0.09793   0.15268   0.07799
  18        8D 0        0.39929   0.03153  -0.33243   0.68838   0.95987
  19        8D+1        0.03857  -0.00717   0.01209   0.06090   0.09588
  20        8D-1       -0.03525   0.01096   0.04433  -0.03100  -0.07609
  21        8D+2       -0.29413  -0.13402   0.01359  -0.80451  -0.64218
  22        8D-2        0.03277   0.23420  -1.40716   0.78286   0.94425
  23 2   Ti 1S         -0.14635  -0.01120   1.88279   0.03516   6.92084
  24        2S          0.17641  -0.00347   0.48292   0.00228   1.82242
  25        3S          0.99421  -0.00433   1.28731  -0.00618   0.28540
  26        4PX        -0.00128  -0.03581   0.02014   0.02130   0.00346
  27        4PY         0.00048  -0.00053  -0.01841   0.03564  -0.04173
  28        4PZ         0.00034  -0.00137   0.00055   0.00312  -0.00171
  29        5PX        -0.46943  -0.03773   0.03522   7.43724  -0.05089
  30        5PY        -0.08799   0.01296  -0.04208   1.99495  -0.00408
  31        5PZ         0.01091   0.00002  -0.00130  -0.02709   0.00185
  32        6PX        -0.09967  -0.00207   0.00760   0.87293  -0.00512
  33        6PY         0.01772  -0.00424   0.02722   0.03334   0.00896
  34        6PZ        -0.00091  -0.00014  -0.00167  -0.09144   0.00147
  35        7D 0        0.06001   0.00644  -0.14516  -0.00246  -0.17299
  36        7D+1       -0.00729   0.00334  -0.00389  -0.00023   0.01575
  37        7D-1       -0.00729   0.01615  -0.00624  -0.00093   0.01491
  38        7D+2        0.03816  -0.06119   0.06462   0.00267  -0.02324
  39        7D-2       -0.03436   0.21594  -0.00944   0.00071  -0.03042
  40        8D 0        0.71140   0.03151  -0.19371  -0.02773  -1.81468
  41        8D+1       -0.08000   0.03359   0.06048   0.00384   0.12807
  42        8D-1       -0.06332   0.12667  -0.07560   0.00205   0.11671
  43        8D+2       -0.00358  -0.84350   0.86783   0.00274   0.43171
  44        8D-2       -0.24347   2.76632  -1.78140  -0.00910   1.72545
  45 3   Ti 1S         -0.21037  -0.02797   2.07345   4.10352  -2.68669
  46        2S          0.08551  -0.00745   0.65062   1.19497  -0.76343
  47        3S         -1.22334   0.00913  -1.90889   2.80891  -0.60281
  48        4PX        -0.09078  -0.01171  -0.01536   0.02751  -0.05326
  49        4PY         0.01575  -0.04232   0.11442   0.12965  -0.08118
  50        4PZ        -0.00090   0.00011  -0.03374  -0.03455   0.02254
  51        5PX        -1.38703  -0.11263  -0.88974   3.51886  -2.04538
  52        5PY        -0.18193   0.42121  -0.51353   0.20213   0.09771
  53        5PZ         0.00011   0.01140  -0.02176  -0.14203   0.13298
  54        6PX         0.18208   0.02933   0.01847  -0.40915   0.38172
  55        6PY        -0.00455  -0.09467   0.00015  -0.08705   0.01087
  56        6PZ         0.00521  -0.00346   0.03051   0.06530  -0.04874
  57        7D 0        0.01401   0.00417  -0.15085  -0.09370  -0.00395
  58        7D+1        0.01007  -0.00318  -0.00764   0.00065  -0.01058
  59        7D-1       -0.00087   0.01014  -0.00890  -0.00378   0.00657
  60        7D+2        0.06649   0.04823   0.04267  -0.07103   0.06708
  61        7D-2       -0.01904  -0.14586  -0.09180  -0.15386   0.08150
  62        8D 0        0.32826  -0.00638  -0.30299  -0.67843   0.94426
  63        8D+1        0.03825  -0.00457   0.02054  -0.05011   0.08444
  64        8D-1       -0.02876   0.01310   0.03645   0.03112  -0.06443
  65        8D+2       -0.35196  -0.09741   0.03197   0.86225  -0.70547
  66        8D-2       -0.24312   0.17430  -1.33940  -0.77629   0.92255
  67 4   O  1S          0.04490   0.04702  -0.00293   0.00161   0.00327
  68        2S         -0.95551  -1.16376   0.43978  -0.06902   0.31546
  69        3S          1.66946   2.39812  -1.20536   0.13841  -0.83278
  70        4PX         0.11339  -0.04273   0.09942  -0.03698   0.11378
  71        4PY        -0.06676   0.04601  -0.06873  -0.01526  -0.02629
  72        4PZ        -0.00251   0.00506   0.00247   0.00285   0.00182
  73        5PX        -0.17939   0.53379  -0.67685   0.09417  -0.75589
  74        5PY        -0.14584  -0.32599   0.38793   0.19361   0.33370
  75        5PZ         0.02265  -0.00134  -0.00152  -0.01740  -0.00681
  76 5   O  1S          0.03687  -0.04420  -0.00642   0.00368   0.00569
  77        2S         -0.84126   1.09415   0.41945   0.31720   0.33337
  78        3S          1.60806  -2.30819  -0.86510  -1.04415  -1.09409
  79        4PX        -0.01230   0.05046  -0.11594  -0.14304   0.15328
  80        4PY         0.09101   0.05437   0.05354   0.03147   0.06704
  81        4PZ         0.00980  -0.00392   0.02324   0.01624  -0.00536
  82        5PX         0.16359  -0.45146   0.84636   0.86429  -1.41465
  83        5PY         0.13983  -0.41385  -0.23968  -0.38286  -0.72157
  84        5PZ        -0.01176  -0.01082  -0.10336  -0.10738   0.01585
  85 6   O  1S          0.05575  -0.04025  -0.00671  -0.00338   0.00501
  86        2S         -1.18367   1.00530   0.44619  -0.31202   0.32835
  87        3S          2.15715  -2.11645  -0.94924   1.01606  -0.99076
  88        4PX         0.02709  -0.03955   0.10982  -0.14063  -0.16594
  89        4PY        -0.07682  -0.05877  -0.05499   0.03235  -0.07764
  90        4PZ        -0.00476   0.00491  -0.02332   0.01592   0.00346
  91        5PX        -0.13742   0.45573  -0.85274   0.85478   1.46181
  92        5PY        -0.19385   0.43184   0.25073  -0.38528   0.75345
  93        5PZ        -0.01234   0.00526   0.10593  -0.10572  -0.00790
  94 7   O  1S          0.03275   0.04498  -0.00285  -0.00202   0.00356
  95        2S         -0.75767  -1.13151   0.47231   0.09119   0.33058
  96        3S          1.39941   2.41763  -1.31527  -0.19688  -0.92227
  97        4PX        -0.11604   0.03105  -0.09778  -0.03645  -0.09267
  98        4PY         0.09218  -0.02947   0.06157  -0.01481   0.02930
  99        4PZ         0.00136  -0.00646  -0.00097   0.00121   0.00058
 100        5PX         0.18643  -0.45940   0.63744   0.13659   0.69698
 101        5PY         0.06399   0.29363  -0.38450   0.18585  -0.37084
 102        5PZ        -0.01360   0.01136  -0.00848  -0.01042  -0.00290
 103 8   O  1S         -0.01889  -0.00841  -0.00943  -0.00139  -0.00441
 104        2S          0.25419   0.12664   0.80775  -0.49136  -0.37122
 105        3S         -0.20906  -0.11249  -2.10352   1.47724   1.34091
 106        4PX        -0.08490  -0.02785  -0.01931   0.03967  -0.01677
 107        4PY         0.03636  -0.03136   0.11583  -0.09008  -0.05951
 108        4PZ         0.00806  -0.00244  -0.02316   0.01493   0.01996
 109        5PX         0.21383   0.06976   0.24680  -0.21531   0.01028
 110        5PY        -0.00570   0.07949  -0.65208   0.70853   0.56681
 111        5PZ        -0.04954   0.01080   0.12424  -0.10764  -0.14332
 112 9   O  1S         -0.03194  -0.01007  -0.00952   0.00118  -0.00402
 113        2S          0.53714   0.17155   0.80182   0.49215  -0.35054
 114        3S         -0.73450  -0.19587  -2.07511  -1.47082   1.28390
 115        4PX         0.06322   0.02204   0.02071   0.04298   0.01900
 116        4PY        -0.02195   0.02746  -0.11183  -0.09234   0.06467
 117        4PZ        -0.00388   0.00347   0.02524   0.01692  -0.02112
 118        5PX        -0.23051  -0.05724  -0.26366  -0.21474  -0.05951
 119        5PY         0.02275  -0.04480   0.61748   0.71985  -0.59073
 120        5PZ         0.02775  -0.01664  -0.13565  -0.12272   0.15363
          Condensed to atoms (all electrons):
 Mulliken charges:
               1
     1  Ti   1.313354
     2  Ti   1.426041
     3  Ti   1.266323
     4  O   -0.713607
     5  O   -0.778514
     6  O   -0.791978
     7  O   -0.699303
     8  O   -0.512959
     9  O   -0.509358
 Sum of Mulliken charges =  -0.00000
 Mulliken charges with hydrogens summed into heavy atoms:
               1
     1  Ti   1.313354
     2  Ti   1.426041
     3  Ti   1.266323
     4  O   -0.713607
     5  O   -0.778514
     6  O   -0.791978
     7  O   -0.699303
     8  O   -0.512959
     9  O   -0.509358
 Electronic spatial extent (au):  <R**2>=           2101.2598
 Charge=              0.0000 electrons
 Dipole moment (field-independent basis, Debye):
    X=              0.8822    Y=             -0.4355    Z=              0.0947  Tot=              0.9884
 StAtR1:  DoIntr=F IAtCor=3 NETot=      84 Failed=F Sum=  3.00D+01 SumC=  0.00D+00
 There are a total of      235478 grid points.
 ElSum from          density=       84.0000004047
 ElSum from atomic densities=      114.0000053978

 Hirshfeld populations at iteration   1 (CX, CA, CB, DipXYZ):
               1          2          3          4          5          6
     1  Ti   0.000026   5.492665   5.492665   0.478449   0.775409  -0.198295
     2  Ti   0.000004   5.586842   5.586842   0.002068  -0.005765   0.002003
     3  Ti   0.000025   5.508101   5.508101  -0.428703  -0.821779   0.210593
     4  O    0.000014   4.220578   4.220578   0.012159  -0.146741   0.004430
     5  O    0.000031   4.238318   4.238318  -0.040887   0.138160   0.011532
     6  O    0.000034   4.246288   4.246288   0.037001  -0.148484  -0.012947
     7  O    0.000013   4.211504   4.211504  -0.013721   0.136443  -0.003267
     8  O    0.000056   4.245953   4.245953  -0.101724   0.093693  -0.011299
     9  O    0.000053   4.249751   4.249751   0.114425  -0.090422   0.012908
       Tot   0.000255  42.000000  42.000000   0.059067  -0.069485   0.015660

 Dip from Atomic Chgs              0.288000  -0.101868   0.021606
         Total Dipole              0.347067  -0.171353   0.037266

 Hirshfeld charges, spin densities, dipoles, and CM5 charges using IRadAn=      5:
              Q-H        S-H        Dx         Dy         Dz        Q-CM5   
     1  Ti   1.014669   0.000000   0.478449   0.775409  -0.198295   1.577954
     2  Ti   0.826316   0.000000   0.002068  -0.005765   0.002003   1.405269
     3  Ti   0.983799   0.000000  -0.428703  -0.821779   0.210593   1.575667
     4  O   -0.441155   0.000000   0.012159  -0.146741   0.004430  -0.736050
     5  O   -0.476637   0.000000  -0.040887   0.138160   0.011532  -0.782577
     6  O   -0.492577   0.000000   0.037001  -0.148484  -0.012947  -0.778363
     7  O   -0.423008   0.000000  -0.013721   0.136443  -0.003267  -0.728679
     8  O   -0.491905   0.000000  -0.101724   0.093693  -0.011299  -0.759888
     9  O   -0.499502   0.000000   0.114425  -0.090422   0.012908  -0.773332
       Tot  -0.000000   0.000000   0.059067  -0.069485   0.015660  -0.000000
 Hirshfeld charges with hydrogens summed into heavy atoms:
              Q-H       Q-CM5   
     1  Ti   1.014669   1.577954
     2  Ti   0.826316   1.405269
     3  Ti   0.983799   1.575667
     4  O   -0.441155  -0.736050
     5  O   -0.476637  -0.782577
     6  O   -0.492577  -0.778363
     7  O   -0.423008  -0.728679
     8  O   -0.491905  -0.759888
     9  O   -0.499502  -0.773332
 
 EQQ=  0.00000000000     EQD=  0.00000000000     EDD= 0.158915107110E-02
 EQQ+QD+DD= 0.158915107110E-02
 
 Orbital energies and kinetic energies (alpha):
                                 1                 2
   1         O               -19.112758         29.125783
   2         O               -19.101060         29.125999
   3         O               -19.100778         29.125619
   4         O               -19.099499         29.126325
   5         O               -19.096088         29.126367
   6         O               -19.087682         29.126022
   7         O                -2.458009          1.342841
   8         O                -2.440580          1.340807
   9         O                -2.427456          1.339366
  10         O                -1.588281          2.321075
  11         O                -1.576713          2.396703
  12         O                -1.571800          2.365793
  13         O                -1.566737          2.348099
  14         O                -1.560734          2.382796
  15         O                -1.559482          2.395678
  16         O                -1.556867          2.349323
  17         O                -1.548939          2.387622
  18         O                -1.545867          2.394530
  19         O                -0.909551          2.844248
  20         O                -0.894441          3.000829
  21         O                -0.886211          2.966039
  22         O                -0.874768          3.076930
  23         O                -0.841925          3.167189
  24         O                -0.834758          3.209346
  25         O                -0.396152          2.299869
  26         O                -0.381226          2.493827
  27         O                -0.378096          2.291651
  28         O                -0.367844          2.369675
  29         O                -0.353722          2.388006
  30         O                -0.346919          2.142084
  31         O                -0.340305          2.212721
  32         O                -0.328193          2.253006
  33         O                -0.324921          2.429473
  34         O                -0.324505          2.546933
  35         O                -0.321315          2.099438
  36         O                -0.289745          2.297711
  37         O                -0.277723          2.407154
  38         O                -0.270312          2.651756
  39         O                -0.265154          2.312509
  40         O                -0.260942          2.514469
  41         O                -0.256803          2.557191
  42         O                -0.228046          2.704462
  43         V                -0.109730          2.672558
  44         V                -0.094317          3.661261
  45         V                -0.086619          3.090668
  46         V                -0.079540          3.360616
  47         V                -0.075057          3.537599
  48         V                -0.071764          3.663206
  49         V                -0.052497          3.613456
  50         V                -0.045435          3.575907
  51         V                -0.021764          3.631321
  52         V                -0.017410          3.019742
  53         V                -0.012511          2.550454
  54         V                -0.010911          2.643842
  55         V                -0.008640          3.703633
  56         V                -0.003138          2.972222
  57         V                 0.011555          0.277965
  58         V                 0.011817          0.250342
  59         V                 0.020913          0.280515
  60         V                 0.022592          0.824139
  61         V                 0.026274          0.334507
  62         V                 0.029062          0.393482
  63         V                 0.045999          0.161632
  64         V                 0.046534          0.222984
  65         V                 0.052546          0.359921
  66         V                 0.076598          4.534267
  67         V                 0.091435          2.396840
  68         V                 0.099400          0.652334
  69         V                 0.111669          0.644933
  70         V                 0.118925          1.785899
  71         V                 0.123649          1.816334
  72         V                 0.134865          0.534924
  73         V                 0.149877          0.777622
  74         V                 0.157259          0.862800
  75         V                 0.160821          1.132533
  76         V                 0.191993          1.128545
  77         V                 0.198229          1.058277
  78         V                 0.246483          1.868660
  79         V                 0.318838          1.451707
  80         V                 0.321880          1.674360
  81         V                 0.339471          1.737953
  82         V                 0.340029          1.776441
  83         V                 0.346686          1.441630
  84         V                 0.353870          1.437060
  85         V                 0.365766          1.363689
  86         V                 0.375639          1.539489
  87         V                 0.402007          1.461697
  88         V                 0.424458          1.503943
  89         V                 0.426472          1.369656
  90         V                 0.461411          1.379582
  91         V                 0.487349          1.717930
  92         V                 0.503749          1.460536
  93         V                 0.543028          1.800097
  94         V                 0.689934          2.357705
  95         V                 0.724215          3.157165
  96         V                 0.751105          3.002310
  97         V                 0.757129          2.896497
  98         V                 0.770759          3.076689
  99         V                 0.794476          3.041657
 100         V                 0.801881          2.865393
 101         V                 0.811638          3.027903
 102         V                 0.838246          2.894321
 103         V                 0.852501          3.128126
 104         V                 0.892712          2.932860
 105         V                 0.897759          2.956393
 106         V                 0.908549          2.948202
 107         V                 0.915281          2.900070
 108         V                 0.984458          2.952963
 109         V                 1.057958          3.279877
 110         V                 1.060635          3.196811
 111         V                 1.082883          3.329998
 112         V                 1.357792          3.616852
 113         V                 1.409100          4.177394
 114         V                 1.551269          4.283104
 115         V                 1.702536          4.287295
 116         V                 1.741831          4.237652
 117         V                 1.949157          4.836160
 118         V                 4.146552          2.881558
 119         V                 9.472452          2.854678
 120         V                15.416519          3.820144
 Total kinetic energy from orbitals= 5.227145304206D+02

 Test job not archived.
 1\1\GINC-POP-OS\SP\RB3LYP\LANL2DZ\O6Ti3\RHEINHEIMER\31-May-2021\0\\#t 
 B3LYP/LANL2DZ # SCRF=(Solvent=Water) # Gfinput IOP(6/7=3) Pop=hirshfel
 d Density Test # Units(Ang,Deg)\\3-tio2.pdb\\0,1\Ti,-1,-1.641,1.281,-0
 .014\Ti,-1,1.10770513,1.41319636,-0.03946004\Ti,-1,3.85641027,1.545392
 73,-0.06492008\O,-1,2.59824652,0.24907049,0.26629683\O,-1,2.43626749,2
 .63074102,-0.53886675\O,-1,-0.25649358,0.15493477,0.47724339\O,-1,-0.2
 8140306,2.5579148,-0.35239315\O,-1,-2.55712953,2.59862657,-0.32144578\
 O,-1,4.77709533,0.23630425,0.21797797\\Version=ES64L-G16RevA.03\State=
 1-A\HF=-626.0234036\RMSD=3.990e-09\Dipole=-0.328003,0.2076499,-0.02236
 24\Quadrupole=3.9782031,-15.274852,11.2966488,30.9368933,-4.4842413,9.
 4208913\PG=C01 [X(O6Ti3)]\\@


 ADVERTISING--  HE WHO HAS SOMETHING TO SELL AND GOES AND WHISPERS
                IN A WELL, IS NOT SO APT TO GET THE DOLLARS AS HE
                WHO CLIMBS A TREE AND HOLLERS.

                   -- FROM THE BACK OF A SUGAR PACKET
 Job cpu time:       0 days  0 hours  2 minutes 53.3 seconds.
 Elapsed time:       0 days  0 hours  0 minutes 23.2 seconds.
 File lengths (MBytes):  RWF=     38 Int=      0 D2E=      0 Chk=      2 Scr=      1
 Normal termination of Gaussian 16 at Mon May 31 13:18:05 2021.
