Title Card Required                                                     
SP        RB3LYP                                                      LANL2DZ             
Number of atoms                            I                9
Info1-9                                    I   N=           9
          24          24           0           0           0         111
           1          18        -502
Full Title                                 C   N=           2
Title Card Required     
Route                                      C   N=          10
#P B3LYP/LANL2DZ # SCRF=(Solvent=Water) # Pop=(Chelp, ReadRa
dii) # Gfinput IOP(6/7=3) Density Test # Units(Ang,Deg)     
Charge                                     I                0
Multiplicity                               I                1
Number of electrons                        I               84
Number of alpha electrons                  I               42
Number of beta electrons                   I               42
Number of basis functions                  I              120
Number of independent functions            I              120
Number of point charges in /Mol/           I                0
Number of translation vectors              I                0
Atomic numbers                             I   N=           9
          22          22          22           8           8           8
           8           8           8
Nuclear charges                            R   N=           9
  1.20000000E+01  1.20000000E+01  1.20000000E+01  8.00000000E+00  8.00000000E+00
  8.00000000E+00  8.00000000E+00  8.00000000E+00  8.00000000E+00
Current cartesian coordinates              R   N=          27
  5.15327099E+00  7.58267833E-01 -9.01485541E-02  9.91729403E-03 -4.99180436E-03
  3.77226187E-03 -5.13343642E+00 -7.68251462E-01  9.76930837E-02 -3.01813072E+00
  1.97794625E+00 -7.42168417E-02 -2.24659420E+00 -2.71892143E+00 -1.70579362E-01
  2.32533583E+00  2.79839852E+00  1.85233640E-01  2.84389346E+00 -1.97612398E+00
  6.01449143E-02  7.12959525E+00 -1.60769451E+00  8.57793467E-02 -7.11591725E+00
  1.56757759E+00 -1.17482874E-01
Number of symbols in /Mol/                 I                0
Force Field                                I                0
Atom Types                                 C   N=           9
                                                            
                                                
Int Atom Types                             I   N=           9
           0           0           0           0           0           0
           0           0           0
MM charges                                 R   N=           9
  0.00000000E+00  0.00000000E+00  0.00000000E+00  0.00000000E+00  0.00000000E+00
  0.00000000E+00  0.00000000E+00  0.00000000E+00  0.00000000E+00
Integer atomic weights                     I   N=           9
          48          48          48          16          16          16
          16          16          16
Real atomic weights                        R   N=           9
  4.79479467E+01  4.79479467E+01  4.79479467E+01  1.59949146E+01  1.59949146E+01
  1.59949146E+01  1.59949146E+01  1.59949146E+01  1.59949146E+01
Atom fragment info                         I   N=           9
           0           0           0           0           0           0
           0           0           0
Atom residue num                           I   N=           9
           0           0           0           0           0           0
           0           0           0
Nuclear spins                              I   N=           9
           0           0           0           0           0           0
           0           0           0
Nuclear ZEff                               R   N=           9
 -9.57000000E+00 -9.57000000E+00 -9.57000000E+00 -5.60000000E+00 -5.60000000E+00
 -5.60000000E+00 -5.60000000E+00 -5.60000000E+00 -5.60000000E+00
Nuclear ZNuc                               R   N=           9
  2.20000000E+01  2.20000000E+01  2.20000000E+01  8.00000000E+00  8.00000000E+00
  8.00000000E+00  8.00000000E+00  8.00000000E+00  8.00000000E+00
Nuclear QMom                               R   N=           9
  0.00000000E+00  0.00000000E+00  0.00000000E+00  0.00000000E+00  0.00000000E+00
  0.00000000E+00  0.00000000E+00  0.00000000E+00  0.00000000E+00
Nuclear GFac                               R   N=           9
  0.00000000E+00  0.00000000E+00  0.00000000E+00  0.00000000E+00  0.00000000E+00
  0.00000000E+00  0.00000000E+00  0.00000000E+00  0.00000000E+00
MicOpt                                     I   N=           9
          -2          -2          -2          -2          -2          -2
          -2          -2          -2
Number of residues                         I                0
Number of secondary structures             I                0
SymInf integers                            I   N=          26
           1           1           1           1           1           0
           0           0           0           0           0           0
           0           0           0           0           0           0
           0           0           0           0           0           0
           0           0
RotTr to input orientation                 R   N=          12
 -9.95055997E-01  9.76762160E-02 -1.79699837E-02 -9.85382281E-02 -9.48380670E-01
  3.01437096E-01  1.24008497E-02  3.01717520E-01  9.53316714E-01  2.10258892E+00
  2.66371311E+00 -7.64819001E-02
Number of contracted shells                I               54
Number of primitive shells                 I              141
Pure/Cartesian d shells                    I                0
Pure/Cartesian f shells                    I                0
Highest angular momentum                   I                2
Largest degree of contraction              I                7
Shell types                                I   N=          54
           0           0           0           1           1           1
          -2          -2           0           0           0           1
           1           1          -2          -2           0           0
           0           1           1           1          -2          -2
           0           0           0           1           1           0
           0           0           1           1           0           0
           0           1           1           0           0           0
           1           1           0           0           0           1
           1           0           0           0           1           1
Number of primitives per shell             I   N=          54
           3           3           1           3           1           1
           4           1           3           3           1           3
           1           1           4           1           3           3
           1           3           1           1           4           1
           7           2           1           4           1           7
           2           1           4           1           7           2
           1           4           1           7           2           1
           4           1           7           2           1           4
           1           7           2           1           4           1
Shell to atom map                          I   N=          54
           1           1           1           1           1           1
           1           1           2           2           2           2
           2           2           2           2           3           3
           3           3           3           3           3           3
           4           4           4           4           4           5
           5           5           5           5           6           6
           6           6           6           7           7           7
           7           7           8           8           8           8
           8           9           9           9           9           9
Primitive exponents                        R   N=         141
  1.09800000E+00  4.17800000E-01  8.72000000E-02  4.37200000E+00  1.09800000E+00
  4.17800000E-01  3.14000000E-02  1.25200000E+01  1.49100000E+00  4.85900000E-01
  5.30000000E-02  1.60000000E-02  2.02100000E+01  5.49500000E+00  1.69900000E+00
  4.84000000E-01  1.15700000E-01  1.09800000E+00  4.17800000E-01  8.72000000E-02
  4.37200000E+00  1.09800000E+00  4.17800000E-01  3.14000000E-02  1.25200000E+01
  1.49100000E+00  4.85900000E-01  5.30000000E-02  1.60000000E-02  2.02100000E+01
  5.49500000E+00  1.69900000E+00  4.84000000E-01  1.15700000E-01  1.09800000E+00
  4.17800000E-01  8.72000000E-02  4.37200000E+00  1.09800000E+00  4.17800000E-01
  3.14000000E-02  1.25200000E+01  1.49100000E+00  4.85900000E-01  5.30000000E-02
  1.60000000E-02  2.02100000E+01  5.49500000E+00  1.69900000E+00  4.84000000E-01
  1.15700000E-01  7.81700000E+03  1.17600000E+03  2.73200000E+02  8.11700000E+01
  2.71800000E+01  9.53200000E+00  3.41400000E+00  9.53200000E+00  9.39800000E-01
  2.84600000E-01  3.51800000E+01  7.90400000E+00  2.30500000E+00  7.17100000E-01
  2.13700000E-01  7.81700000E+03  1.17600000E+03  2.73200000E+02  8.11700000E+01
  2.71800000E+01  9.53200000E+00  3.41400000E+00  9.53200000E+00  9.39800000E-01
  2.84600000E-01  3.51800000E+01  7.90400000E+00  2.30500000E+00  7.17100000E-01
  2.13700000E-01  7.81700000E+03  1.17600000E+03  2.73200000E+02  8.11700000E+01
  2.71800000E+01  9.53200000E+00  3.41400000E+00  9.53200000E+00  9.39800000E-01
  2.84600000E-01  3.51800000E+01  7.90400000E+00  2.30500000E+00  7.17100000E-01
  2.13700000E-01  7.81700000E+03  1.17600000E+03  2.73200000E+02  8.11700000E+01
  2.71800000E+01  9.53200000E+00  3.41400000E+00  9.53200000E+00  9.39800000E-01
  2.84600000E-01  3.51800000E+01  7.90400000E+00  2.30500000E+00  7.17100000E-01
  2.13700000E-01  7.81700000E+03  1.17600000E+03  2.73200000E+02  8.11700000E+01
  2.71800000E+01  9.53200000E+00  3.41400000E+00  9.53200000E+00  9.39800000E-01
  2.84600000E-01  3.51800000E+01  7.90400000E+00  2.30500000E+00  7.17100000E-01
  2.13700000E-01  7.81700000E+03  1.17600000E+03  2.73200000E+02  8.11700000E+01
  2.71800000E+01  9.53200000E+00  3.41400000E+00  9.53200000E+00  9.39800000E-01
  2.84600000E-01  3.51800000E+01  7.90400000E+00  2.30500000E+00  7.17100000E-01
  2.13700000E-01
Contraction coefficients                   R   N=         141
 -1.02367699E-01 -3.75317215E-01  1.21542315E+00 -3.63709837E-01  8.18453383E-01
  4.18452642E-01  1.00000000E+00 -4.56908005E-02  6.20331307E-01  4.76532906E-01
  1.00000000E+00  1.00000000E+00  3.41681990E-02  1.71000595E-01  4.40584887E-01
  6.11424582E-01  1.00000000E+00 -1.02367699E-01 -3.75317215E-01  1.21542315E+00
 -3.63709837E-01  8.18453383E-01  4.18452642E-01  1.00000000E+00 -4.56908005E-02
  6.20331307E-01  4.76532906E-01  1.00000000E+00  1.00000000E+00  3.41681990E-02
  1.71000595E-01  4.40584887E-01  6.11424582E-01  1.00000000E+00 -1.02367699E-01
 -3.75317215E-01  1.21542315E+00 -3.63709837E-01  8.18453383E-01  4.18452642E-01
  1.00000000E+00 -4.56908005E-02  6.20331307E-01  4.76532906E-01  1.00000000E+00
  1.00000000E+00  3.41681990E-02  1.71000595E-01  4.40584887E-01  6.11424582E-01
  1.00000000E+00  1.17600033E-03  8.96800252E-03  4.28680121E-02  1.43930040E-01
  3.55630100E-01  4.61248130E-01  1.40206039E-01 -1.54153074E-01  1.05691451E+00
  1.00000000E+00  1.95800005E-02  1.24200003E-01  3.94714010E-01  6.27376016E-01
  1.00000000E+00  1.17600033E-03  8.96800252E-03  4.28680121E-02  1.43930040E-01
  3.55630100E-01  4.61248130E-01  1.40206039E-01 -1.54153074E-01  1.05691451E+00
  1.00000000E+00  1.95800005E-02  1.24200003E-01  3.94714010E-01  6.27376016E-01
  1.00000000E+00  1.17600033E-03  8.96800252E-03  4.28680121E-02  1.43930040E-01
  3.55630100E-01  4.61248130E-01  1.40206039E-01 -1.54153074E-01  1.05691451E+00
  1.00000000E+00  1.95800005E-02  1.24200003E-01  3.94714010E-01  6.27376016E-01
  1.00000000E+00  1.17600033E-03  8.96800252E-03  4.28680121E-02  1.43930040E-01
  3.55630100E-01  4.61248130E-01  1.40206039E-01 -1.54153074E-01  1.05691451E+00
  1.00000000E+00  1.95800005E-02  1.24200003E-01  3.94714010E-01  6.27376016E-01
  1.00000000E+00  1.17600033E-03  8.96800252E-03  4.28680121E-02  1.43930040E-01
  3.55630100E-01  4.61248130E-01  1.40206039E-01 -1.54153074E-01  1.05691451E+00
  1.00000000E+00  1.95800005E-02  1.24200003E-01  3.94714010E-01  6.27376016E-01
  1.00000000E+00  1.17600033E-03  8.96800252E-03  4.28680121E-02  1.43930040E-01
  3.55630100E-01  4.61248130E-01  1.40206039E-01 -1.54153074E-01  1.05691451E+00
  1.00000000E+00  1.95800005E-02  1.24200003E-01  3.94714010E-01  6.27376016E-01
  1.00000000E+00
Coordinates of each shell                  R   N=         162
  5.15327099E+00  7.58267833E-01 -9.01485541E-02  5.15327099E+00  7.58267833E-01
 -9.01485541E-02  5.15327099E+00  7.58267833E-01 -9.01485541E-02  5.15327099E+00
  7.58267833E-01 -9.01485541E-02  5.15327099E+00  7.58267833E-01 -9.01485541E-02
  5.15327099E+00  7.58267833E-01 -9.01485541E-02  5.15327099E+00  7.58267833E-01
 -9.01485541E-02  5.15327099E+00  7.58267833E-01 -9.01485541E-02  9.91729403E-03
 -4.99180436E-03  3.77226187E-03  9.91729403E-03 -4.99180436E-03  3.77226187E-03
  9.91729403E-03 -4.99180436E-03  3.77226187E-03  9.91729403E-03 -4.99180436E-03
  3.77226187E-03  9.91729403E-03 -4.99180436E-03  3.77226187E-03  9.91729403E-03
 -4.99180436E-03  3.77226187E-03  9.91729403E-03 -4.99180436E-03  3.77226187E-03
  9.91729403E-03 -4.99180436E-03  3.77226187E-03 -5.13343642E+00 -7.68251462E-01
  9.76930837E-02 -5.13343642E+00 -7.68251462E-01  9.76930837E-02 -5.13343642E+00
 -7.68251462E-01  9.76930837E-02 -5.13343642E+00 -7.68251462E-01  9.76930837E-02
 -5.13343642E+00 -7.68251462E-01  9.76930837E-02 -5.13343642E+00 -7.68251462E-01
  9.76930837E-02 -5.13343642E+00 -7.68251462E-01  9.76930837E-02 -5.13343642E+00
 -7.68251462E-01  9.76930837E-02 -3.01813072E+00  1.97794625E+00 -7.42168417E-02
 -3.01813072E+00  1.97794625E+00 -7.42168417E-02 -3.01813072E+00  1.97794625E+00
 -7.42168417E-02 -3.01813072E+00  1.97794625E+00 -7.42168417E-02 -3.01813072E+00
  1.97794625E+00 -7.42168417E-02 -2.24659420E+00 -2.71892143E+00 -1.70579362E-01
 -2.24659420E+00 -2.71892143E+00 -1.70579362E-01 -2.24659420E+00 -2.71892143E+00
 -1.70579362E-01 -2.24659420E+00 -2.71892143E+00 -1.70579362E-01 -2.24659420E+00
 -2.71892143E+00 -1.70579362E-01  2.32533583E+00  2.79839852E+00  1.85233640E-01
  2.32533583E+00  2.79839852E+00  1.85233640E-01  2.32533583E+00  2.79839852E+00
  1.85233640E-01  2.32533583E+00  2.79839852E+00  1.85233640E-01  2.32533583E+00
  2.79839852E+00  1.85233640E-01  2.84389346E+00 -1.97612398E+00  6.01449143E-02
  2.84389346E+00 -1.97612398E+00  6.01449143E-02  2.84389346E+00 -1.97612398E+00
  6.01449143E-02  2.84389346E+00 -1.97612398E+00  6.01449143E-02  2.84389346E+00
 -1.97612398E+00  6.01449143E-02  7.12959525E+00 -1.60769451E+00  8.57793467E-02
  7.12959525E+00 -1.60769451E+00  8.57793467E-02  7.12959525E+00 -1.60769451E+00
  8.57793467E-02  7.12959525E+00 -1.60769451E+00  8.57793467E-02  7.12959525E+00
 -1.60769451E+00  8.57793467E-02 -7.11591725E+00  1.56757759E+00 -1.17482874E-01
 -7.11591725E+00  1.56757759E+00 -1.17482874E-01 -7.11591725E+00  1.56757759E+00
 -1.17482874E-01 -7.11591725E+00  1.56757759E+00 -1.17482874E-01 -7.11591725E+00
  1.56757759E+00 -1.17482874E-01
Num ILSW                                   I              100
ILSW                                       I   N=         100
           0           0           0           0           2           0
           0           0           0           0         402          -1
           5           0           0           0           0           0
           0           0           0           0           0           0
           1           0           0           0           0           0
           0           0      100000           0          -1           0
           0           0           0           0           0           0
           0           0           0           1           0           0
           0 -2000000000           1           0           0           0
           0           0           4          52           0           0
           0           0           5           0           0           0
           0           0           0           9           0           1
           0           0           0           0           0           0
           0           0           0           0           0           0
           0           0           0           0           0           0
           0           0           0           0           0           0
           0           0           0           0
Num RLSW                                   I               52
RLSW                                       R   N=          52
  8.00000000E-01  7.20000000E-01  1.00000000E+00  8.10000000E-01  2.00000000E-01
  0.00000000E+00  0.00000000E+00  1.00000000E+00  0.00000000E+00  0.00000000E+00
  0.00000000E+00  0.00000000E+00  1.00000000E+00  0.00000000E+00  0.00000000E+00
  0.00000000E+00  0.00000000E+00  1.00000000E+00  0.00000000E+00  0.00000000E+00
  0.00000000E+00  0.00000000E+00  1.00000000E+00  0.00000000E+00  0.00000000E+00
  0.00000000E+00  0.00000000E+00  1.00000000E+00  0.00000000E+00  0.00000000E+00
  0.00000000E+00  0.00000000E+00  1.00000000E+00  0.00000000E+00  0.00000000E+00
  0.00000000E+00  0.00000000E+00  0.00000000E+00  1.00000000E+00  1.00000000E+00
  0.00000000E+00  1.00000000E+00  0.00000000E+00  0.00000000E+00  0.00000000E+00
  0.00000000E+00  0.00000000E+00  0.00000000E+00  0.00000000E+00  0.00000000E+00
  0.00000000E+00  0.00000000E+00
ECP-MxAtEC                                 I           250000
ECP-MaxLECP                                I               10
ECP-MaxAtL                                 I          2250000
ECP-MxTECP                                 I         11250000
ECP-LenNCZ                                 I               13
ECP-KFirst                                 I   N=          90
           1           1           1           0           0           0
           0           0           0           4           4           4
           0           0           0           0           0           0
           9           9           9           0           0           0
           0           0           0           0           0           0
           0           0           0           0           0           0
           0           0           0           0           0           0
           0           0           0           0           0           0
           0           0           0           0           0           0
           0           0           0           0           0           0
           0           0           0           0           0           0
           0           0           0           0           0           0
           0           0           0           0           0           0
           0           0           0           0           0           0
           0           0           0           0           0           0
ECP-KLast                                  I   N=          90
           3           3           3           0           0           0
           0           0           0           8           8           8
           0           0           0           0           0           0
          13          13          13           0           0           0
           0           0           0           0           0           0
           0           0           0           0           0           0
           0           0           0           0           0           0
           0           0           0           0           0           0
           0           0           0           0           0           0
           0           0           0           0           0           0
           0           0           0           0           0           0
           0           0           0           0           0           0
           0           0           0           0           0           0
           0           0           0           0           0           0
           0           0           0           0           0           0
ECP-LMax                                   I   N=           9
           2           2           2           0           0           0
           0           0           0
ECP-LPSkip                                 I   N=           9
           0           0           0           1           1           1
           1           1           1
ECP-RNFroz                                 R   N=           9
  1.00000000E+01  1.00000000E+01  1.00000000E+01  0.00000000E+00  0.00000000E+00
  0.00000000E+00  0.00000000E+00  0.00000000E+00  0.00000000E+00
ECP-NLP                                    I   N=          13
           1           2           2           0           1           2
           2           2           0           1           2           2
           2
ECP-CLP1                                   R   N=          13
 -1.00000000E+01 -5.18427816E+01 -9.14291450E+00  3.00000000E+00  1.94825579E+01
  2.07334928E+02  2.35674450E+02 -1.66878439E+02  5.00000000E+00  5.53488220E+00
  1.77841938E+02  1.07420715E+02 -7.19065902E+01
ECP-CLP2                                   R   N=          13
  0.00000000E+00  0.00000000E+00  0.00000000E+00  0.00000000E+00  0.00000000E+00
  0.00000000E+00  0.00000000E+00  0.00000000E+00  0.00000000E+00  0.00000000E+00
  0.00000000E+00  0.00000000E+00  0.00000000E+00
ECP-ZLP                                    R   N=          13
  2.65326391E+02  4.77687815E+01  1.18903334E+01  8.14730696E+01  7.26496724E+01
  3.18128213E+01  6.16644680E+00  5.82683470E+00  5.02966943E+01  6.35089754E+01
  2.60996084E+01  5.60225730E+00  5.21710690E+00
MxBond                                     I                6
NBond                                      I   N=           9
           4           6           4           2           2           2
           2           1           1
IBond                                      I   N=          54
           2           6           7           8           0           0
           1           3           4           5           6           7
           2           4           5           9           0           0
           2           3           0           0           0           0
           2           3           0           0           0           0
           1           2           0           0           0           0
           1           2           0           0           0           0
           1           0           0           0           0           0
           3           0           0           0           0           0
RBond                                      R   N=          54
  1.00000000E+00  1.00000000E+00  1.00000000E+00  2.00000000E+00  0.00000000E+00
  0.00000000E+00  1.00000000E+00  1.00000000E+00  1.00000000E+00  1.00000000E+00
  1.00000000E+00  1.00000000E+00  1.00000000E+00  1.00000000E+00  1.00000000E+00
  2.00000000E+00  0.00000000E+00  0.00000000E+00  1.00000000E+00  1.00000000E+00
  0.00000000E+00  0.00000000E+00  0.00000000E+00  0.00000000E+00  1.00000000E+00
  1.00000000E+00  0.00000000E+00  0.00000000E+00  0.00000000E+00  0.00000000E+00
  1.00000000E+00  1.00000000E+00  0.00000000E+00  0.00000000E+00  0.00000000E+00
  0.00000000E+00  1.00000000E+00  1.00000000E+00  0.00000000E+00  0.00000000E+00
  0.00000000E+00  0.00000000E+00  2.00000000E+00  0.00000000E+00  0.00000000E+00
  0.00000000E+00  0.00000000E+00  0.00000000E+00  2.00000000E+00  0.00000000E+00
  0.00000000E+00  0.00000000E+00  0.00000000E+00  0.00000000E+00
Virial Ratio                               R      2.197639183900007E+00
SCF Energy                                 R     -6.260234036256419E+02
Total Energy                               R     -6.260234036256419E+02
RMS Density                                R      3.990011333550483E-09
Job Status                                 I                1
Nuclear derivative order                   I                0
PCM-NSphere                                I                9
PCM-NGenSphere                             I                9
PCM-NOrd                                   I   N=           9
           1           2           3           4           5           6
           7           8           9
PCM-SphereRadii                            R   N=           9
  3.29993425E+00  3.29993425E+00  3.29993425E+00  3.63772279E+00  3.63772279E+00
  3.63772279E+00  3.63772279E+00  3.63772279E+00  3.63772279E+00
PCM-SphereLoc                              R   N=          27
  5.15327099E+00  7.58267833E-01 -9.01485541E-02  9.91729403E-03 -4.99180436E-03
  3.77226187E-03 -5.13343642E+00 -7.68251462E-01  9.76930837E-02 -3.01813072E+00
  1.97794625E+00 -7.42168417E-02 -2.24659420E+00 -2.71892143E+00 -1.70579362E-01
  2.32533583E+00  2.79839852E+00  1.85233640E-01  2.84389346E+00 -1.97612398E+00
  6.01449143E-02  7.12959525E+00 -1.60769451E+00  8.57793467E-02 -7.11591725E+00
  1.56757759E+00 -1.17482874E-01
External E-field                           R   N=          35
  0.00000000E+00  0.00000000E+00  0.00000000E+00  0.00000000E+00  0.00000000E+00
  0.00000000E+00  0.00000000E+00  0.00000000E+00  0.00000000E+00  0.00000000E+00
  0.00000000E+00  0.00000000E+00  0.00000000E+00  0.00000000E+00  0.00000000E+00
  0.00000000E+00  0.00000000E+00  0.00000000E+00  0.00000000E+00  0.00000000E+00
  0.00000000E+00  0.00000000E+00  0.00000000E+00  0.00000000E+00  0.00000000E+00
  0.00000000E+00  0.00000000E+00  0.00000000E+00  0.00000000E+00  0.00000000E+00
  0.00000000E+00  0.00000000E+00  0.00000000E+00  0.00000000E+00  0.00000000E+00
IOpCl                                      I                0
IROHF                                      I                0
Alpha Orbital Energies                     R   N=         120
 -1.91127575E+01 -1.91010595E+01 -1.91007785E+01 -1.90994992E+01 -1.90960875E+01
 -1.90876824E+01 -2.45800924E+00 -2.44057951E+00 -2.42745554E+00 -1.58828067E+00
 -1.57671286E+00 -1.57180002E+00 -1.56673706E+00 -1.56073355E+00 -1.55948177E+00
 -1.55686660E+00 -1.54893912E+00 -1.54586718E+00 -9.09551147E-01 -8.94440917E-01
 -8.86210772E-01 -8.74767677E-01 -8.41925481E-01 -8.34758250E-01 -3.96152367E-01
 -3.81226224E-01 -3.78096230E-01 -3.67844084E-01 -3.53722304E-01 -3.46919154E-01
 -3.40305070E-01 -3.28192592E-01 -3.24921345E-01 -3.24505106E-01 -3.21314947E-01
 -2.89745381E-01 -2.77723481E-01 -2.70311587E-01 -2.65154499E-01 -2.60941940E-01
 -2.56803206E-01 -2.28046202E-01 -1.09730334E-01 -9.43174666E-02 -8.66193702E-02
 -7.95403315E-02 -7.50574636E-02 -7.17640132E-02 -5.24973885E-02 -4.54350438E-02
 -2.17639005E-02 -1.74100845E-02 -1.25114543E-02 -1.09114492E-02 -8.64026762E-03
 -3.13817460E-03  1.15549130E-02  1.18165487E-02  2.09126523E-02  2.25923465E-02
  2.62741624E-02  2.90624696E-02  4.59988113E-02  4.65343586E-02  5.25456697E-02
  7.65976924E-02  9.14348123E-02  9.93999696E-02  1.11669304E-01  1.18925096E-01
  1.23649142E-01  1.34865230E-01  1.49877038E-01  1.57259479E-01  1.60821276E-01
  1.91992839E-01  1.98229090E-01  2.46482982E-01  3.18837990E-01  3.21880138E-01
  3.39471227E-01  3.40029107E-01  3.46686381E-01  3.53869945E-01  3.65765585E-01
  3.75639284E-01  4.02007277E-01  4.24457961E-01  4.26471996E-01  4.61410852E-01
  4.87349104E-01  5.03749344E-01  5.43028036E-01  6.89934424E-01  7.24214928E-01
  7.51104673E-01  7.57128514E-01  7.70758764E-01  7.94475967E-01  8.01880903E-01
  8.11638478E-01  8.38245829E-01  8.52501364E-01  8.92711744E-01  8.97759123E-01
  9.08548704E-01  9.15281379E-01  9.84458080E-01  1.05795813E+00  1.06063512E+00
  1.08288280E+00  1.35779173E+00  1.40909979E+00  1.55126878E+00  1.70253591E+00
  1.74183118E+00  1.94915684E+00  4.14655191E+00  9.47245164E+00  1.54165191E+01
Alpha MO coefficients                      R   N=       14400
  1.87572813E-04  5.05282764E-07 -2.45908689E-04 -1.09302951E-04 -1.21555798E-04
  8.15550053E-06 -2.65703983E-04  4.33926408E-05  8.54040998E-06  1.70630484E-04
 -6.07123431E-05  8.71023745E-07 -5.52262061E-05 -7.20765712E-06 -7.17552737E-06
 -3.52835998E-05  1.26892845E-04 -2.81857938E-04 -2.18620791E-05  1.80535536E-06
  1.67100173E-04 -1.47974670E-05  1.26727284E-03  3.31850984E-04 -5.80125008E-04
  1.54457488E-04 -1.16336147E-04  4.39756493E-06  1.26309063E-03  4.06279323E-06
 -2.23761497E-06 -1.00828828E-05  2.19346649E-04 -1.94777010E-05 -7.85932877E-05
  2.98366458E-06 -5.21447359E-06  2.96428906E-05 -1.23921257E-04 -5.93794521E-04
  3.41029460E-05 -4.16193253E-05  7.83252900E-04 -1.72734942E-03  2.95164924E-04
  7.07933498E-05  7.72964252E-04 -3.10409806E-05 -1.38707068E-05 -4.84743094E-06
  5.14991816E-04 -4.49732312E-04 -3.79045493E-06  8.36489658E-05  5.04740396E-05
  7.57782861E-06 -2.67917351E-05 -1.92502040E-06 -3.38668159E-06 -3.11611386E-05
  1.27991622E-05 -6.34533545E-05  2.42953498E-06  2.06312750E-05  2.10130895E-04
 -4.26011786E-04  3.19438421E-04  3.30029859E-04 -1.19206932E-03  4.23455425E-05
 -3.14017642E-06  6.10630400E-08 -5.99752943E-04  2.73596080E-04 -1.11288973E-05
 -7.44803206E-05 -1.93517802E-05  1.50425358E-04 -4.26387499E-05 -2.10816450E-05
  1.76188196E-06  2.98937214E-04  2.41438534E-05 -1.36700483E-05 -1.60828842E-04
 -3.28429835E-05  1.01381303E-04  8.64038866E-08  5.26133995E-05  2.39660108E-07
 -1.64020563E-04 -4.94585508E-05  1.23476013E-06  9.98837594E-01  6.58466994E-03
 -4.87353205E-03 -1.67860408E-04  8.68846715E-04 -3.86709636E-05  4.54186097E-04
 -9.65313976E-04  3.21284283E-05 -1.17293337E-04 -5.46804466E-05 -2.35107291E-05
  4.96022878E-05  4.83568268E-06 -2.46353390E-06 -1.16240620E-04 -2.68463526E-05
  1.86067786E-05  3.06022101E-05  6.74315869E-05 -2.57425020E-04  2.39604654E-06
 -3.27336031E-07  1.84293483E-06 -5.91982485E-05  8.49809356E-05 -2.25018379E-05