 Entering Gaussian System, Link 0=g16
 Input=ale-1p-2dp_neutral_scf_g09.com
 Output=ale-1p-2dp_neutral_scf_g09.log
 Initial command:
 /opt/g16//g16/l1.exe "/home/orison/scrgauss/Gau-13783.inp" -scrdir="/home/orison/scrgauss/"
 Entering Link 1 = /opt/g16//g16/l1.exe PID=     13785.
  
 Copyright (c) 1988,1990,1992,1993,1995,1998,2003,2009,2016,
            Gaussian, Inc.  All Rights Reserved.
  
 This is part of the Gaussian(R) 16 program.  It is based on
 the Gaussian(R) 09 system (copyright 2009, Gaussian, Inc.),
 the Gaussian(R) 03 system (copyright 2003, Gaussian, Inc.),
 the Gaussian(R) 98 system (copyright 1998, Gaussian, Inc.),
 the Gaussian(R) 94 system (copyright 1995, Gaussian, Inc.),
 the Gaussian 92(TM) system (copyright 1992, Gaussian, Inc.),
 the Gaussian 90(TM) system (copyright 1990, Gaussian, Inc.),
 the Gaussian 88(TM) system (copyright 1988, Gaussian, Inc.),
 the Gaussian 86(TM) system (copyright 1986, Carnegie Mellon
 University), and the Gaussian 82(TM) system (copyright 1983,
 Carnegie Mellon University). Gaussian is a federally registered
 trademark of Gaussian, Inc.
  
 This software contains proprietary and confidential information,
 including trade secrets, belonging to Gaussian, Inc.
  
 This software is provided under written license and may be
 used, copied, transmitted, or stored only in accord with that
 written license.
  
 The following legend is applicable only to US Government
 contracts under FAR:
  
                    RESTRICTED RIGHTS LEGEND
  
 Use, reproduction and disclosure by the US Government is
 subject to restrictions as set forth in subparagraphs (a)
 and (c) of the Commercial Computer Software - Restricted
 Rights clause in FAR 52.227-19.
  
 Gaussian, Inc.
 340 Quinnipiac St., Bldg. 40, Wallingford CT 06492
  
  
 ---------------------------------------------------------------
 Warning -- This program may not be used in any manner that
 competes with the business of Gaussian, Inc. or will provide
 assistance to any competitor of Gaussian, Inc.  The licensee
 of this program is prohibited from giving any competitor of
 Gaussian, Inc. access to this program.  By using this program,
 the user acknowledges that Gaussian, Inc. is engaged in the
 business of creating and licensing software in the field of
 computational chemistry and represents and warrants to the
 licensee that it is not a competitor of Gaussian, Inc. and that
 it will not use this program in any manner prohibited above.
 ---------------------------------------------------------------
  

 Cite this work as:
 Gaussian 16, Revision A.03,
 M. J. Frisch, G. W. Trucks, H. B. Schlegel, G. E. Scuseria, 
 M. A. Robb, J. R. Cheeseman, G. Scalmani, V. Barone, 
 G. A. Petersson, H. Nakatsuji, X. Li, M. Caricato, A. V. Marenich, 
 J. Bloino, B. G. Janesko, R. Gomperts, B. Mennucci, H. P. Hratchian, 
 J. V. Ortiz, A. F. Izmaylov, J. L. Sonnenberg, D. Williams-Young, 
 F. Ding, F. Lipparini, F. Egidi, J. Goings, B. Peng, A. Petrone, 
 T. Henderson, D. Ranasinghe, V. G. Zakrzewski, J. Gao, N. Rega, 
 G. Zheng, W. Liang, M. Hada, M. Ehara, K. Toyota, R. Fukuda, 
 J. Hasegawa, M. Ishida, T. Nakajima, Y. Honda, O. Kitao, H. Nakai, 
 T. Vreven, K. Throssell, J. A. Montgomery, Jr., J. E. Peralta, 
 F. Ogliaro, M. J. Bearpark, J. J. Heyd, E. N. Brothers, K. N. Kudin, 
 V. N. Staroverov, T. A. Keith, R. Kobayashi, J. Normand, 
 K. Raghavachari, A. P. Rendell, J. C. Burant, S. S. Iyengar, 
 J. Tomasi, M. Cossi, J. M. Millam, M. Klene, C. Adamo, R. Cammi, 
 J. W. Ochterski, R. L. Martin, K. Morokuma, O. Farkas, 
 J. B. Foresman, and D. J. Fox, Gaussian, Inc., Wallingford CT, 2016.
 
 ******************************************
 Gaussian 16:  EM64L-G16RevA.03 25-Dec-2016
                 8-Feb-2021 
 ******************************************
 %nproc=8
 Will use up to    8 processors via shared memory.
 %Mem=4GB
 ----------------------------------------------------------------------
 #t B3LYP/6-31G(d,p) scrf=(solvent=water) # Gfinput IOP(6/7=3) Pop=hirs
 hfeld Density Test # Units(Ang,Deg)
 ----------------------------------------------------------------------
 ----------------------
 ale-1p-2dp-opt-g09.log
 ----------------------
 Symbolic Z-matrix:
 Charge = -1 Multiplicity = 1
 C                    -3.42399  -1.08266   0.43204 
 C                    -2.28545  -0.29034  -0.19446 
 H                    -3.3668   -2.14776   0.20111 
 H                    -3.46679  -0.95978   1.51567 
 C                    -0.92959  -0.78613   0.33085 
 H                    -2.30609  -0.40779  -1.28332 
 H                    -2.41432   0.77354   0.01847 
 H                    -0.87426  -0.63401   1.414 
 H                    -0.86396  -1.86337   0.14587 
 N                    -4.76242  -0.60922  -0.09646 
 H                    -5.54037  -1.12217   0.3271 
 H                    -4.9084    0.38587   0.09734 
 H                    -4.8269   -0.73535  -1.11066 
 C                     0.29961  -0.11832  -0.31289 
 O                     0.17564  -0.20847  -1.74717 
 H                     1.09783  -0.37767  -2.03475 
 P                     1.88823  -1.06283   0.09774 
 P                     0.49297   1.68565   0.18927 
 O                     2.6849   -1.01217  -1.19768 
 O                     1.80035   2.21563  -0.35752 
 O                     2.4832   -0.66965   1.42985 
 O                     0.11661   1.87603   1.6478 
 O                    -0.73545   2.41292  -0.70251 
 H                    -1.32767   2.81357  -0.05048 
 O                     1.38012  -2.65142   0.2312 
 H                     1.21027  -2.84097   1.16485 
 
                    Distance matrix (angstroms):
                    1          2          3          4          5
     1  C    0.000000
     2  C    1.522021   0.000000
     3  H    1.091347   2.185361   0.000000
     4  H    1.091414   2.183634   1.774644   0.000000
     5  C    2.514001   1.536266   2.794792   2.805590   0.000000
     6  H    2.155832   1.095371   2.521137   3.079978   2.154864
     7  H    2.153126   1.092606   3.078079   2.520655   2.175908
     8  H    2.768873   2.167189   3.158369   2.614895   1.095178
     9  H    2.691683   2.147296   2.519551   3.076939   1.094975
    10  N    1.514877   2.499334   2.098430   2.097740   3.860632
    11  H    2.119348   3.399775   2.406681   2.395580   4.623011
    12  H    2.114729   2.724385   2.967588   2.429130   4.154400
    13  H    2.113931   2.737960   2.418168   2.966122   4.155665
    14  C    3.917916   2.593483   4.222012   4.270533   1.539904
    15  O    4.297732   2.911112   4.483918   4.947513   2.423508
    16  H    5.198934   3.852386   5.297661   5.812064   3.142186
    17  P    5.322765   4.254612   5.366852   5.540522   2.840953
    18  P    4.802609   3.430948   5.439945   4.943413   2.855419
    19  O    6.322934   5.121706   6.314210   6.723712   3.930908
    20  O    6.228631   4.795856   6.786065   6.429217   4.115457
    21  O    6.005089   5.051958   6.157687   5.957678   3.587270
    22  O    4.771558   3.722496   5.515246   4.571655   3.148966
    23  O    4.553518   3.157250   5.342315   4.873976   3.367409
    24  H    4.450617   3.251512   5.369930   4.611597   3.641665
    25  O    5.057748   4.380900   4.773660   5.291885   2.970521
    26  H    5.010492   4.535802   4.728520   5.053399   3.081708
                    6          7          8          9         10
     6  H    0.000000
     7  H    1.761224   0.000000
     8  H    3.062164   2.510077   0.000000
     9  H    2.498207   3.061559   1.766235   0.000000
    10  N    2.735465   2.727418   4.171318   4.102390   0.000000
    11  H    3.682982   3.668945   4.815832   4.738252   1.023585
    12  H    3.050924   2.525261   4.364405   4.628059   1.024243
    13  H    2.547860   3.061409   4.691220   4.307690   1.024045
    14  C    2.795568   2.875870   2.150827   2.146988   5.090380
    15  O    2.532562   3.284771   3.358031   2.720857   5.222057
    16  H    3.486004   4.228025   3.981046   3.288013   6.176821
    17  P    4.464160   4.678726   3.089948   2.866658   6.668930
    18  P    3.792855   3.051795   2.958057   3.799827   5.741707
    19  O    5.028180   5.538034   4.430745   3.888968   7.539074
    20  O    4.960069   4.470395   4.290952   4.897978   7.149677
    21  O    5.510641   5.297216   3.357687   3.778499   7.404882
    22  O    4.435851   3.205590   2.708650   4.147339   5.746638
    23  O    3.280344   2.454788   3.712501   4.361527   5.071204
    24  H    3.585298   2.312420   3.773074   4.703972   4.849238
    25  O    4.573378   5.115993   3.248259   2.379958   6.481415
    26  H    4.927341   5.245619   3.045983   2.509273   6.499587
                   11         12         13         14         15
    11  H    0.000000
    12  H    1.651169   0.000000
    13  H    1.651007   1.650164   0.000000
    14  C    5.960090   5.248415   5.224774   0.000000
    15  O    6.149001   5.440857   5.070321   1.442447   0.000000
    16  H    7.085077   6.419003   6.007021   1.915521   0.980696
    17  P    7.432377   6.949310   6.830845   1.893259   2.658306
    18  P    6.656128   5.556319   5.987660   1.882514   2.727304
    19  O    8.366129   7.828780   7.517403   2.696559   2.691516
    20  O    8.092947   6.968662   7.293555   2.775164   3.232193
    21  O    8.111628   7.584554   7.739255   2.847661   3.953603
    22  O    6.537192   5.465824   6.234316   2.802718   3.984275
    23  O    6.053446   4.707675   5.178625   2.762305   2.965314
    24  H    5.777496   4.328649   5.095432   3.363462   3.777754
    25  O    7.088087   6.984879   6.633175   2.807157   3.366411
    26  H    7.016213   6.999300   6.786678   3.228907   4.059603
                   16         17         18         19         20
    16  H    0.000000
    17  P    2.375224   0.000000
    18  P    3.093446   3.083711   0.000000
    19  O    1.903173   1.521632   3.742515   0.000000
    20  O    3.167308   3.311085   1.512977   3.450651   0.000000
    21  O    3.742720   1.510992   3.323777   2.657427   3.462054
    22  O    4.427542   3.765398   1.518289   4.799434   2.640382
    23  O    3.594881   4.427746   1.683214   4.865720   2.566753
    24  H    4.472627   5.038895   2.155090   5.661543   3.199424
    25  O    3.222446   1.673202   4.427072   2.535999   4.920504
    26  H    4.039546   2.181773   4.685783   3.331755   5.313662
                   21         22         23         24         25
    21  O    0.000000
    22  O    3.482634   0.000000
    23  O    4.940537   2.556993   0.000000
    24  H    5.370934   2.418487   0.967671   0.000000
    25  O    2.565338   4.909279   5.567314   6.105537   0.000000
    26  H    2.530851   4.866151   5.905609   6.316011   0.967719
                   26
    26  H    0.000000
 Framework group  C1[X(C4H12NO7P2)]
 Deg. of freedom    72
                         Standard orientation:                         
 ---------------------------------------------------------------------
 Center     Atomic      Atomic             Coordinates (Angstroms)
 Number     Number       Type             X           Y           Z
 ---------------------------------------------------------------------
      1          6           0        3.423991   -1.082659   -0.432039
      2          6           0        2.285451   -0.290339    0.194461
      3          1           0        3.366802   -2.147759   -0.201109
      4          1           0        3.466791   -0.959779   -1.515669
      5          6           0        0.929591   -0.786130   -0.330849
      6          1           0        2.306091   -0.407789    1.283321
      7          1           0        2.414320    0.773541   -0.018469
      8          1           0        0.874261   -0.634010   -1.413999
      9          1           0        0.863962   -1.863370   -0.145869
     10          7           0        4.762421   -0.609218    0.096461
     11          1           0        5.540371   -1.122167   -0.327099
     12          1           0        4.908400    0.385872   -0.097339
     13          1           0        4.826901   -0.735348    1.110661
     14          6           0       -0.299610   -0.118321    0.312891
     15          8           0       -0.175640   -0.208471    1.747171
     16          1           0       -1.097829   -0.377672    2.034751
     17         15           0       -1.888229   -1.062832   -0.097739
     18         15           0       -0.492971    1.685649   -0.189269
     19          8           0       -2.684899   -1.012173    1.197681
     20          8           0       -1.800351    2.215628    0.357521
     21          8           0       -2.483199   -0.669653   -1.429849
     22          8           0       -0.116611    1.876029   -1.647799
     23          8           0        0.735449    2.412919    0.702511
     24          1           0        1.327668    2.813570    0.050481
     25          8           0       -1.380118   -2.651422   -0.231199
     26          1           0       -1.210268   -2.840972   -1.164849
 ---------------------------------------------------------------------
 Rotational constants (GHZ):           0.7002410           0.4041208           0.3127936
 AO basis set in the form of general basis input (Overlap normalization):
      1 0
 S   6 1.00       0.000000000000
      0.3047524880D+04  0.1834737132D-02
      0.4573695180D+03  0.1403732281D-01
      0.1039486850D+03  0.6884262226D-01
      0.2921015530D+02  0.2321844432D+00
      0.9286662960D+01  0.4679413484D+00
      0.3163926960D+01  0.3623119853D+00
 SP   3 1.00       0.000000000000
      0.7868272350D+01 -0.1193324198D+00  0.6899906659D-01
      0.1881288540D+01 -0.1608541517D+00  0.3164239610D+00
      0.5442492580D+00  0.1143456438D+01  0.7443082909D+00
 SP   1 1.00       0.000000000000
      0.1687144782D+00  0.1000000000D+01  0.1000000000D+01
 D   1 1.00       0.000000000000
      0.8000000000D+00  0.1000000000D+01
 ****
      2 0
 S   6 1.00       0.000000000000
      0.3047524880D+04  0.1834737132D-02
      0.4573695180D+03  0.1403732281D-01
      0.1039486850D+03  0.6884262226D-01
      0.2921015530D+02  0.2321844432D+00
      0.9286662960D+01  0.4679413484D+00
      0.3163926960D+01  0.3623119853D+00
 SP   3 1.00       0.000000000000
      0.7868272350D+01 -0.1193324198D+00  0.6899906659D-01
      0.1881288540D+01 -0.1608541517D+00  0.3164239610D+00
      0.5442492580D+00  0.1143456438D+01  0.7443082909D+00
 SP   1 1.00       0.000000000000
      0.1687144782D+00  0.1000000000D+01  0.1000000000D+01
 D   1 1.00       0.000000000000
      0.8000000000D+00  0.1000000000D+01
 ****
      3 0
 S   3 1.00       0.000000000000
      0.1873113696D+02  0.3349460434D-01
      0.2825394365D+01  0.2347269535D+00
      0.6401216923D+00  0.8137573261D+00
 S   1 1.00       0.000000000000
      0.1612777588D+00  0.1000000000D+01
 P   1 1.00       0.000000000000
      0.1100000000D+01  0.1000000000D+01
 ****
      4 0
 S   3 1.00       0.000000000000
      0.1873113696D+02  0.3349460434D-01
      0.2825394365D+01  0.2347269535D+00
      0.6401216923D+00  0.8137573261D+00
 S   1 1.00       0.000000000000
      0.1612777588D+00  0.1000000000D+01
 P   1 1.00       0.000000000000
      0.1100000000D+01  0.1000000000D+01
 ****
      5 0
 S   6 1.00       0.000000000000
      0.3047524880D+04  0.1834737132D-02
      0.4573695180D+03  0.1403732281D-01
      0.1039486850D+03  0.6884262226D-01
      0.2921015530D+02  0.2321844432D+00
      0.9286662960D+01  0.4679413484D+00
      0.3163926960D+01  0.3623119853D+00
 SP   3 1.00       0.000000000000
      0.7868272350D+01 -0.1193324198D+00  0.6899906659D-01
      0.1881288540D+01 -0.1608541517D+00  0.3164239610D+00
      0.5442492580D+00  0.1143456438D+01  0.7443082909D+00
 SP   1 1.00       0.000000000000
      0.1687144782D+00  0.1000000000D+01  0.1000000000D+01
 D   1 1.00       0.000000000000
      0.8000000000D+00  0.1000000000D+01
 ****
      6 0
 S   3 1.00       0.000000000000
      0.1873113696D+02  0.3349460434D-01
      0.2825394365D+01  0.2347269535D+00
      0.6401216923D+00  0.8137573261D+00
 S   1 1.00       0.000000000000
      0.1612777588D+00  0.1000000000D+01
 P   1 1.00       0.000000000000
      0.1100000000D+01  0.1000000000D+01
 ****
      7 0
 S   3 1.00       0.000000000000
      0.1873113696D+02  0.3349460434D-01
      0.2825394365D+01  0.2347269535D+00
      0.6401216923D+00  0.8137573261D+00
 S   1 1.00       0.000000000000
      0.1612777588D+00  0.1000000000D+01
 P   1 1.00       0.000000000000
      0.1100000000D+01  0.1000000000D+01
 ****
      8 0
 S   3 1.00       0.000000000000
      0.1873113696D+02  0.3349460434D-01
      0.2825394365D+01  0.2347269535D+00
      0.6401216923D+00  0.8137573261D+00
 S   1 1.00       0.000000000000
      0.1612777588D+00  0.1000000000D+01
 P   1 1.00       0.000000000000
      0.1100000000D+01  0.1000000000D+01
 ****
      9 0
 S   3 1.00       0.000000000000
      0.1873113696D+02  0.3349460434D-01
      0.2825394365D+01  0.2347269535D+00
      0.6401216923D+00  0.8137573261D+00
 S   1 1.00       0.000000000000
      0.1612777588D+00  0.1000000000D+01
 P   1 1.00       0.000000000000
      0.1100000000D+01  0.1000000000D+01
 ****
     10 0
 S   6 1.00       0.000000000000
      0.4173511460D+04  0.1834772160D-02
      0.6274579110D+03  0.1399462700D-01
      0.1429020930D+03  0.6858655181D-01
      0.4023432930D+02  0.2322408730D+00
      0.1282021290D+02  0.4690699481D+00
      0.4390437010D+01  0.3604551991D+00
 SP   3 1.00       0.000000000000
      0.1162636186D+02 -0.1149611817D+00  0.6757974388D-01
      0.2716279807D+01 -0.1691174786D+00  0.3239072959D+00
      0.7722183966D+00  0.1145851947D+01  0.7408951398D+00
 SP   1 1.00       0.000000000000
      0.2120314975D+00  0.1000000000D+01  0.1000000000D+01
 D   1 1.00       0.000000000000
      0.8000000000D+00  0.1000000000D+01
 ****
     11 0
 S   3 1.00       0.000000000000
      0.1873113696D+02  0.3349460434D-01
      0.2825394365D+01  0.2347269535D+00
      0.6401216923D+00  0.8137573261D+00
 S   1 1.00       0.000000000000
      0.1612777588D+00  0.1000000000D+01
 P   1 1.00       0.000000000000
      0.1100000000D+01  0.1000000000D+01
 ****
     12 0
 S   3 1.00       0.000000000000
      0.1873113696D+02  0.3349460434D-01
      0.2825394365D+01  0.2347269535D+00
      0.6401216923D+00  0.8137573261D+00
 S   1 1.00       0.000000000000
      0.1612777588D+00  0.1000000000D+01
 P   1 1.00       0.000000000000
      0.1100000000D+01  0.1000000000D+01
 ****
     13 0
 S   3 1.00       0.000000000000
      0.1873113696D+02  0.3349460434D-01
      0.2825394365D+01  0.2347269535D+00
      0.6401216923D+00  0.8137573261D+00
 S   1 1.00       0.000000000000
      0.1612777588D+00  0.1000000000D+01
 P   1 1.00       0.000000000000
      0.1100000000D+01  0.1000000000D+01
 ****
     14 0
 S   6 1.00       0.000000000000
      0.3047524880D+04  0.1834737132D-02
      0.4573695180D+03  0.1403732281D-01
      0.1039486850D+03  0.6884262226D-01
      0.2921015530D+02  0.2321844432D+00
      0.9286662960D+01  0.4679413484D+00
      0.3163926960D+01  0.3623119853D+00
 SP   3 1.00       0.000000000000
      0.7868272350D+01 -0.1193324198D+00  0.6899906659D-01
      0.1881288540D+01 -0.1608541517D+00  0.3164239610D+00
      0.5442492580D+00  0.1143456438D+01  0.7443082909D+00
 SP   1 1.00       0.000000000000
      0.1687144782D+00  0.1000000000D+01  0.1000000000D+01
 D   1 1.00       0.000000000000
      0.8000000000D+00  0.1000000000D+01
 ****
     15 0
 S   6 1.00       0.000000000000
      0.5484671660D+04  0.1831074430D-02
      0.8252349460D+03  0.1395017220D-01
      0.1880469580D+03  0.6844507810D-01
      0.5296450000D+02  0.2327143360D+00
      0.1689757040D+02  0.4701928980D+00
      0.5799635340D+01  0.3585208530D+00
 SP   3 1.00       0.000000000000
      0.1553961625D+02 -0.1107775495D+00  0.7087426823D-01
      0.3599933586D+01 -0.1480262627D+00  0.3397528391D+00
      0.1013761750D+01  0.1130767015D+01  0.7271585773D+00
 SP   1 1.00       0.000000000000
      0.2700058226D+00  0.1000000000D+01  0.1000000000D+01
 D   1 1.00       0.000000000000
      0.8000000000D+00  0.1000000000D+01
 ****
     16 0
 S   3 1.00       0.000000000000
      0.1873113696D+02  0.3349460434D-01
      0.2825394365D+01  0.2347269535D+00
      0.6401216923D+00  0.8137573261D+00
 S   1 1.00       0.000000000000
      0.1612777588D+00  0.1000000000D+01
 P   1 1.00       0.000000000000
      0.1100000000D+01  0.1000000000D+01
 ****
     17 0
 S   6 1.00       0.000000000000
      0.1941330000D+05  0.1851598923D-02
      0.2909420000D+04  0.1420619174D-01
      0.6613640000D+03  0.6999945928D-01
      0.1857590000D+03  0.2400788603D+00
      0.5919430000D+02  0.4847617180D+00
      0.2003100000D+02  0.3351998050D+00
 SP   6 1.00       0.000000000000
      0.3394780000D+03 -0.2782170105D-02  0.4564616191D-02
      0.8101010000D+02 -0.3604990135D-01  0.3369357188D-01
      0.2587800000D+02 -0.1166310044D+00  0.1397548834D+00
      0.9452210000D+01  0.9683280364D-01  0.3393617168D+00
      0.3665660000D+01  0.6144180231D+00  0.4509206237D+00
      0.1467460000D+01  0.4037980152D+00  0.2385858009D+00
 SP   3 1.00       0.000000000000
      0.2156230000D+01 -0.2529241139D+00 -0.1776531273D-01
      0.7489970000D+00  0.3285184468D-01  0.2740581964D+00
      0.2831450000D+00  0.1081254762D+01  0.7854215630D+00
 SP   1 1.00       0.000000000000
      0.9983170000D-01  0.1000000000D+01  0.1000000000D+01
 D   1 1.00       0.000000000000
      0.5500000000D+00  0.1000000000D+01
 ****
     18 0
 S   6 1.00       0.000000000000
      0.1941330000D+05  0.1851598923D-02
      0.2909420000D+04  0.1420619174D-01
      0.6613640000D+03  0.6999945928D-01
      0.1857590000D+03  0.2400788603D+00
      0.5919430000D+02  0.4847617180D+00
      0.2003100000D+02  0.3351998050D+00
 SP   6 1.00       0.000000000000
      0.3394780000D+03 -0.2782170105D-02  0.4564616191D-02
      0.8101010000D+02 -0.3604990135D-01  0.3369357188D-01
      0.2587800000D+02 -0.1166310044D+00  0.1397548834D+00
      0.9452210000D+01  0.9683280364D-01  0.3393617168D+00
      0.3665660000D+01  0.6144180231D+00  0.4509206237D+00
      0.1467460000D+01  0.4037980152D+00  0.2385858009D+00
 SP   3 1.00       0.000000000000
      0.2156230000D+01 -0.2529241139D+00 -0.1776531273D-01
      0.7489970000D+00  0.3285184468D-01  0.2740581964D+00
      0.2831450000D+00  0.1081254762D+01  0.7854215630D+00
 SP   1 1.00       0.000000000000
      0.9983170000D-01  0.1000000000D+01  0.1000000000D+01
 D   1 1.00       0.000000000000
      0.5500000000D+00  0.1000000000D+01
 ****
     19 0
 S   6 1.00       0.000000000000
      0.5484671660D+04  0.1831074430D-02
      0.8252349460D+03  0.1395017220D-01
      0.1880469580D+03  0.6844507810D-01
      0.5296450000D+02  0.2327143360D+00
      0.1689757040D+02  0.4701928980D+00
      0.5799635340D+01  0.3585208530D+00
 SP   3 1.00       0.000000000000
      0.1553961625D+02 -0.1107775495D+00  0.7087426823D-01
      0.3599933586D+01 -0.1480262627D+00  0.3397528391D+00
      0.1013761750D+01  0.1130767015D+01  0.7271585773D+00
 SP   1 1.00       0.000000000000
      0.2700058226D+00  0.1000000000D+01  0.1000000000D+01
 D   1 1.00       0.000000000000
      0.8000000000D+00  0.1000000000D+01
 ****
     20 0
 S   6 1.00       0.000000000000
      0.5484671660D+04  0.1831074430D-02
      0.8252349460D+03  0.1395017220D-01
      0.1880469580D+03  0.6844507810D-01
      0.5296450000D+02  0.2327143360D+00
      0.1689757040D+02  0.4701928980D+00
      0.5799635340D+01  0.3585208530D+00
 SP   3 1.00       0.000000000000
      0.1553961625D+02 -0.1107775495D+00  0.7087426823D-01
      0.3599933586D+01 -0.1480262627D+00  0.3397528391D+00
      0.1013761750D+01  0.1130767015D+01  0.7271585773D+00
 SP   1 1.00       0.000000000000
      0.2700058226D+00  0.1000000000D+01  0.1000000000D+01
 D   1 1.00       0.000000000000
      0.8000000000D+00  0.1000000000D+01
 ****
     21 0
 S   6 1.00       0.000000000000
      0.5484671660D+04  0.1831074430D-02
      0.8252349460D+03  0.1395017220D-01
      0.1880469580D+03  0.6844507810D-01
      0.5296450000D+02  0.2327143360D+00
      0.1689757040D+02  0.4701928980D+00
      0.5799635340D+01  0.3585208530D+00
 SP   3 1.00       0.000000000000
      0.1553961625D+02 -0.1107775495D+00  0.7087426823D-01
      0.3599933586D+01 -0.1480262627D+00  0.3397528391D+00
      0.1013761750D+01  0.1130767015D+01  0.7271585773D+00
 SP   1 1.00       0.000000000000
      0.2700058226D+00  0.1000000000D+01  0.1000000000D+01
 D   1 1.00       0.000000000000
      0.8000000000D+00  0.1000000000D+01
 ****
     22 0
 S   6 1.00       0.000000000000
      0.5484671660D+04  0.1831074430D-02
      0.8252349460D+03  0.1395017220D-01
      0.1880469580D+03  0.6844507810D-01
      0.5296450000D+02  0.2327143360D+00
      0.1689757040D+02  0.4701928980D+00
      0.5799635340D+01  0.3585208530D+00
 SP   3 1.00       0.000000000000
      0.1553961625D+02 -0.1107775495D+00  0.7087426823D-01
      0.3599933586D+01 -0.1480262627D+00  0.3397528391D+00
      0.1013761750D+01  0.1130767015D+01  0.7271585773D+00
 SP   1 1.00       0.000000000000
      0.2700058226D+00  0.1000000000D+01  0.1000000000D+01
 D   1 1.00       0.000000000000
      0.8000000000D+00  0.1000000000D+01
 ****
     23 0
 S   6 1.00       0.000000000000
      0.5484671660D+04  0.1831074430D-02
      0.8252349460D+03  0.1395017220D-01
      0.1880469580D+03  0.6844507810D-01
      0.5296450000D+02  0.2327143360D+00
      0.1689757040D+02  0.4701928980D+00
      0.5799635340D+01  0.3585208530D+00
 SP   3 1.00       0.000000000000
      0.1553961625D+02 -0.1107775495D+00  0.7087426823D-01
      0.3599933586D+01 -0.1480262627D+00  0.3397528391D+00
      0.1013761750D+01  0.1130767015D+01  0.7271585773D+00
 SP   1 1.00       0.000000000000
      0.2700058226D+00  0.1000000000D+01  0.1000000000D+01
 D   1 1.00       0.000000000000
      0.8000000000D+00  0.1000000000D+01
 ****
     24 0
 S   3 1.00       0.000000000000
      0.1873113696D+02  0.3349460434D-01
      0.2825394365D+01  0.2347269535D+00
      0.6401216923D+00  0.8137573261D+00
 S   1 1.00       0.000000000000
      0.1612777588D+00  0.1000000000D+01
 P   1 1.00       0.000000000000
      0.1100000000D+01  0.1000000000D+01
 ****
     25 0
 S   6 1.00       0.000000000000
      0.5484671660D+04  0.1831074430D-02
      0.8252349460D+03  0.1395017220D-01
      0.1880469580D+03  0.6844507810D-01
      0.5296450000D+02  0.2327143360D+00
      0.1689757040D+02  0.4701928980D+00
      0.5799635340D+01  0.3585208530D+00
 SP   3 1.00       0.000000000000
      0.1553961625D+02 -0.1107775495D+00  0.7087426823D-01
      0.3599933586D+01 -0.1480262627D+00  0.3397528391D+00
      0.1013761750D+01  0.1130767015D+01  0.7271585773D+00
 SP   1 1.00       0.000000000000
      0.2700058226D+00  0.1000000000D+01  0.1000000000D+01
 D   1 1.00       0.000000000000
      0.8000000000D+00  0.1000000000D+01
 ****
     26 0
 S   3 1.00       0.000000000000
      0.1873113696D+02  0.3349460434D-01
      0.2825394365D+01  0.2347269535D+00
      0.6401216923D+00  0.8137573261D+00
 S   1 1.00       0.000000000000
      0.1612777588D+00  0.1000000000D+01
 P   1 1.00       0.000000000000
      0.1100000000D+01  0.1000000000D+01
 ****

   278 basis functions,   524 primitive gaussians,   278 cartesian basis functions
    65 alpha electrons       65 beta electrons
       nuclear repulsion energy      1348.5244384188 Hartrees.
 NAtoms=   26 NActive=   26 NUniq=   26 SFac= 1.00D+00 NAtFMM=   60 NAOKFM=F Big=F
 ------------------------------------------------------------------------------
 Polarizable Continuum Model (PCM)
 =================================
 Model                : PCM.
 Atomic radii         : UFF (Universal Force Field).
 Polarization charges : Total charges.
 Charge compensation  : None.
 Solution method      : On-the-fly selection.
 Cavity type          : Scaled VdW (van der Waals Surface) (Alpha=1.100).
 Cavity algorithm     : GePol (No added spheres)
                        Default sphere list used, NSphG=   26.
                        Lebedev-Laikov grids with approx.  5.0 points / Ang**2.
                        Smoothing algorithm: York/Karplus (Gamma=1.0000).
                        Polarization charges: spherical gaussians, with
                                              point-specific exponents (IZeta= 3).
                        Self-potential: point-specific (ISelfS= 7).
                        Self-field    : sphere-specific E.n sum rule (ISelfD= 2).
 Solvent              : Water, Eps=  78.355300 Eps(inf)=   1.777849
 ------------------------------------------------------------------------------
 ExpMin= 9.98D-02 ExpMax= 1.94D+04 ExpMxC= 2.91D+03 IAcc=3 IRadAn=         5 AccDes= 0.00D+00
 Harris functional with IExCor=  402 and IRadAn=       5 diagonalized for initial guess.
 HarFok:  IExCor=  402 AccDes= 0.00D+00 IRadAn=         5 IDoV= 1 UseB2=F ITyADJ=14
 ICtDFT=  3500011 ScaDFX=  1.000000  1.000000  1.000000  1.000000
 FoFCou: FMM=F IPFlag=           0 FMFlag=      100000 FMFlg1=           0
         NFxFlg=           0 DoJE=T BraDBF=F KetDBF=T FulRan=T
         wScrn=  0.000000 ICntrl=       500 IOpCl=  0 I1Cent=   200000004 NGrid=           0
         NMat0=    1 NMatS0=      1 NMatT0=    0 NMatD0=    1 NMtDS0=    0 NMtDT0=    0
 Petite list used in FoFCou.
 Inv3:  Mode=1 IEnd=    13242603.
 Iteration    1 A*A^-1 deviation from unit magnitude is 9.33D-15 for    276.
 Iteration    1 A*A^-1 deviation from orthogonality  is 6.58D-15 for   2012    832.
 Iteration    1 A^-1*A deviation from unit magnitude is 9.10D-15 for    276.
 Iteration    1 A^-1*A deviation from orthogonality  is 3.48D-15 for   1983    427.
 Error on total polarization charges =  0.00570
 SCF Done:  E(RB3LYP) =  -1423.98799970     A.U. after   13 cycles
            NFock= 13  Conv=0.37D-08     -V/T= 2.0066

 **********************************************************************

            Population analysis using the SCF density.

 **********************************************************************

 Orbital symmetries:
       Occupied  (A) (A) (A) (A) (A) (A) (A) (A) (A) (A) (A) (A)
                 (A) (A) (A) (A) (A) (A) (A) (A) (A) (A) (A) (A)
                 (A) (A) (A) (A) (A) (A) (A) (A) (A) (A) (A) (A)
                 (A) (A) (A) (A) (A) (A) (A) (A) (A) (A) (A) (A)
                 (A) (A) (A) (A) (A) (A) (A) (A) (A) (A) (A) (A)
                 (A) (A) (A) (A) (A)
       Virtual   (A) (A) (A) (A) (A) (A) (A) (A) (A) (A) (A) (A)
                 (A) (A) (A) (A) (A) (A) (A) (A) (A) (A) (A) (A)
                 (A) (A) (A) (A) (A) (A) (A) (A) (A) (A) (A) (A)
                 (A) (A) (A) (A) (A) (A) (A) (A) (A) (A) (A) (A)
                 (A) (A) (A) (A) (A) (A) (A) (A) (A) (A) (A) (A)
                 (A) (A) (A) (A) (A) (A) (A) (A) (A) (A) (A) (A)
                 (A) (A) (A) (A) (A) (A) (A) (A) (A) (A) (A) (A)
                 (A) (A) (A) (A) (A) (A) (A) (A) (A) (A) (A) (A)
                 (A) (A) (A) (A) (A) (A) (A) (A) (A) (A) (A) (A)
                 (A) (A) (A) (A) (A) (A) (A) (A) (A) (A) (A) (A)
                 (A) (A) (A) (A) (A) (A) (A) (A) (A) (A) (A) (A)
                 (A) (A) (A) (A) (A) (A) (A) (A) (A) (A) (A) (A)
                 (A) (A) (A) (A) (A) (A) (A) (A) (A) (A) (A) (A)
                 (A) (A) (A) (A) (A) (A) (A) (A) (A) (A) (A) (A)
                 (A) (A) (A) (A) (A) (A) (A) (A) (A) (A) (A) (A)
                 (A) (A) (A) (A) (A) (A) (A) (A) (A) (A) (A) (A)
                 (A) (A) (A) (A) (A) (A) (A) (A) (A) (A) (A) (A)
                 (A) (A) (A) (A) (A) (A) (A) (A) (A)
 The electronic state is 1-A.
 Alpha  occ. eigenvalues --  -77.15268 -77.14196 -19.13719 -19.12615 -19.12192
 Alpha  occ. eigenvalues --  -19.06687 -19.06427 -19.05409 -19.05198 -14.47212
 Alpha  occ. eigenvalues --  -10.25723 -10.21256 -10.19314 -10.17899  -6.60139
 Alpha  occ. eigenvalues --   -6.59037  -4.76633  -4.76348  -4.76325  -4.75547
 Alpha  occ. eigenvalues --   -4.75247  -4.75208  -1.01465  -1.01149  -0.99882
 Alpha  occ. eigenvalues --   -0.98679  -0.92679  -0.91569  -0.89026  -0.87724
 Alpha  occ. eigenvalues --   -0.80256  -0.72569  -0.64947  -0.60089  -0.59717
 Alpha  occ. eigenvalues --   -0.56970  -0.54924  -0.51949  -0.50054  -0.49470
 Alpha  occ. eigenvalues --   -0.47238  -0.43928  -0.41922  -0.41338  -0.40976
 Alpha  occ. eigenvalues --   -0.39072  -0.38481  -0.37241  -0.36288  -0.35717
 Alpha  occ. eigenvalues --   -0.34530  -0.33896  -0.33395  -0.32632  -0.29812
 Alpha  occ. eigenvalues --   -0.29057  -0.27746  -0.27485  -0.25846  -0.24737
 Alpha  occ. eigenvalues --   -0.24129  -0.23603  -0.23148  -0.22113  -0.20895
 Alpha virt. eigenvalues --    0.02856   0.07810   0.08742   0.09297   0.10045
 Alpha virt. eigenvalues --    0.10554   0.11615   0.12328   0.13844   0.14864
 Alpha virt. eigenvalues --    0.16146   0.16837   0.17393   0.17924   0.18675
 Alpha virt. eigenvalues --    0.19985   0.20608   0.21165   0.22309   0.23224
 Alpha virt. eigenvalues --    0.24319   0.25083   0.27514   0.29443   0.30085
 Alpha virt. eigenvalues --    0.35729   0.36997   0.41085   0.41767   0.43585
 Alpha virt. eigenvalues --    0.43974   0.47592   0.49581   0.50741   0.52485
 Alpha virt. eigenvalues --    0.53099   0.55646   0.58996   0.60879   0.62093
 Alpha virt. eigenvalues --    0.62759   0.66265   0.67185   0.68714   0.70176
 Alpha virt. eigenvalues --    0.73644   0.76631   0.77244   0.77887   0.78600
 Alpha virt. eigenvalues --    0.79389   0.79621   0.80526   0.81059   0.82765
 Alpha virt. eigenvalues --    0.83835   0.85149   0.86335   0.87649   0.88328
 Alpha virt. eigenvalues --    0.89305   0.90537   0.91298   0.92400   0.93170
 Alpha virt. eigenvalues --    0.94682   0.95192   0.97536   0.98801   0.99852
 Alpha virt. eigenvalues --    1.01356   1.01946   1.04207   1.05217   1.07487
 Alpha virt. eigenvalues --    1.07752   1.08716   1.09171   1.09838   1.10773
 Alpha virt. eigenvalues --    1.12240   1.13872   1.15414   1.17529   1.19245
 Alpha virt. eigenvalues --    1.21330   1.22542   1.23332   1.24659   1.25231
 Alpha virt. eigenvalues --    1.27170   1.29622   1.32637   1.34326   1.36913
 Alpha virt. eigenvalues --    1.40706   1.43273   1.45855   1.47654   1.51610
 Alpha virt. eigenvalues --    1.53761   1.54415   1.56361   1.57114   1.60331
 Alpha virt. eigenvalues --    1.62701   1.63681   1.65864   1.67323   1.68757
 Alpha virt. eigenvalues --    1.68900   1.72456   1.73447   1.78503   1.79359
 Alpha virt. eigenvalues --    1.81009   1.82912   1.84798   1.85730   1.85971
 Alpha virt. eigenvalues --    1.87262   1.87920   1.89410   1.89707   1.90709
 Alpha virt. eigenvalues --    1.91129   1.92427   1.93559   1.94229   1.96480
 Alpha virt. eigenvalues --    1.97422   1.98711   2.00982   2.03272   2.04409
 Alpha virt. eigenvalues --    2.04775   2.07785   2.10005   2.12959   2.13842
 Alpha virt. eigenvalues --    2.14605   2.15093   2.16444   2.17132   2.20197
 Alpha virt. eigenvalues --    2.20932   2.22374   2.24347   2.26763   2.28292
 Alpha virt. eigenvalues --    2.29448   2.30971   2.31372   2.36855   2.38116
 Alpha virt. eigenvalues --    2.39983   2.41188   2.42424   2.46830   2.47225
 Alpha virt. eigenvalues --    2.50859   2.53508   2.54409   2.57192   2.64653
 Alpha virt. eigenvalues --    2.66459   2.66825   2.67715   2.68271   2.71193
 Alpha virt. eigenvalues --    2.71499   2.72833   2.73915   2.77009   2.78302
 Alpha virt. eigenvalues --    2.81030   2.82376   2.84079   2.84809   2.87618
 Alpha virt. eigenvalues --    2.88646   2.89893   2.90633   2.91376   2.93616
 Alpha virt. eigenvalues --    2.98467   3.03492   3.12768   3.24933   3.26914
 Alpha virt. eigenvalues --    3.27892   3.35851   3.40043   3.40961   3.41880
 Alpha virt. eigenvalues --    3.43392   3.51249   3.52252   3.55649   3.57811
 Alpha virt. eigenvalues --    3.60690   3.85300   3.92493   3.96445   4.01038
 Alpha virt. eigenvalues --    4.04160   4.07124   4.14746   4.24496   4.33435
 Alpha virt. eigenvalues --    4.45305   4.55467   4.73789
     Molecular Orbital Coefficients:
                           1         2         3         4         5
                           O         O         O         O         O
     Eigenvalues --   -77.15268 -77.14196 -19.13719 -19.12615 -19.12192
   1 1   C  1S          0.00000   0.00000   0.00000   0.00000   0.00001
   2        2S          0.00001   0.00002   0.00000   0.00003   0.00004
   3        2PX        -0.00000   0.00000  -0.00001   0.00002   0.00002
   4        2PY         0.00000  -0.00001  -0.00000   0.00000   0.00001
   5        2PZ        -0.00000   0.00000  -0.00000  -0.00000  -0.00003
   6        3S         -0.00002  -0.00017   0.00002  -0.00029  -0.00035
   7        3PX         0.00003   0.00006   0.00005  -0.00004   0.00003
   8        3PY         0.00005  -0.00002   0.00008  -0.00014  -0.00019
   9        3PZ         0.00003  -0.00003   0.00000  -0.00008   0.00005
  10        4XX         0.00000   0.00000   0.00000  -0.00001  -0.00001
  11        4YY         0.00001   0.00000   0.00000   0.00000   0.00001
  12        4ZZ         0.00000   0.00001   0.00000   0.00000  -0.00001
  13        4XY        -0.00000   0.00000  -0.00000   0.00001   0.00001
  14        4XZ        -0.00000   0.00000   0.00000   0.00000   0.00001
  15        4YZ         0.00000  -0.00000   0.00000  -0.00001  -0.00001
  16 2   C  1S         -0.00001   0.00001   0.00000   0.00001  -0.00001
  17        2S         -0.00002   0.00006   0.00000  -0.00000  -0.00007
  18        2PX         0.00002  -0.00003   0.00001  -0.00001  -0.00006
  19        2PY         0.00000   0.00001   0.00001   0.00004   0.00000
  20        2PZ        -0.00000   0.00001  -0.00001   0.00004   0.00004
  21        3S          0.00009  -0.00031  -0.00002  -0.00028   0.00046
  22        3PX        -0.00015   0.00038  -0.00004   0.00033   0.00031
  23        3PY        -0.00002  -0.00002  -0.00001  -0.00015  -0.00013
  24        3PZ         0.00005  -0.00004   0.00009  -0.00015   0.00019
  25        4XX        -0.00000   0.00000  -0.00000   0.00002   0.00000
  26        4YY        -0.00002   0.00002  -0.00000   0.00004   0.00001
  27        4ZZ        -0.00002   0.00002   0.00000  -0.00000   0.00002
  28        4XY         0.00001  -0.00000  -0.00001  -0.00002  -0.00001
  29        4XZ         0.00000  -0.00001  -0.00000  -0.00001  -0.00005
  30        4YZ        -0.00000  -0.00000  -0.00000   0.00003  -0.00000
  31 3   H  1S          0.00000   0.00001  -0.00000  -0.00000  -0.00001
  32        2S          0.00004   0.00001   0.00008  -0.00002  -0.00005
  33        3PX        -0.00000  -0.00000  -0.00000   0.00000   0.00000
  34        3PY         0.00000   0.00000   0.00001  -0.00000  -0.00001
  35        3PZ        -0.00000   0.00000  -0.00000   0.00001  -0.00000
  36 4   H  1S          0.00000  -0.00000   0.00000   0.00000   0.00003
  37        2S          0.00002   0.00002  -0.00003   0.00001   0.00011
  38        3PX        -0.00000  -0.00000  -0.00000   0.00000  -0.00000
  39        3PY        -0.00000  -0.00000  -0.00000   0.00001   0.00001
  40        3PZ         0.00000   0.00000  -0.00000   0.00000   0.00001
  41 5   C  1S         -0.00000  -0.00002   0.00000  -0.00005   0.00000
  42        2S          0.00002  -0.00004  -0.00003  -0.00022   0.00005
  43        2PX         0.00003   0.00002  -0.00003   0.00001  -0.00002
  44        2PY        -0.00001  -0.00003  -0.00000  -0.00004  -0.00002
  45        2PZ         0.00000  -0.00001   0.00002   0.00001   0.00007
  46        3S         -0.00024   0.00039   0.00012   0.00149   0.00042
  47        3PX         0.00022   0.00022   0.00009  -0.00040  -0.00004
  48        3PY        -0.00006  -0.00004  -0.00019   0.00061   0.00028
  49        3PZ        -0.00021   0.00005  -0.00004   0.00033  -0.00023
  50        4XX        -0.00005  -0.00003   0.00002  -0.00005   0.00001
  51        4YY        -0.00001  -0.00006   0.00004  -0.00006   0.00001
  52        4ZZ        -0.00002  -0.00003   0.00001  -0.00007  -0.00006
  53        4XY         0.00001   0.00003   0.00003  -0.00001   0.00002
  54        4XZ         0.00001   0.00000   0.00000  -0.00002   0.00002
  55        4YZ         0.00001  -0.00001  -0.00000   0.00003  -0.00000
  56 6   H  1S         -0.00001   0.00003  -0.00001   0.00005   0.00010
  57        2S         -0.00002   0.00004  -0.00004   0.00010  -0.00062
  58        3PX         0.00001  -0.00002   0.00000  -0.00002   0.00002
  59        3PY        -0.00000   0.00000  -0.00000   0.00002  -0.00001
  60        3PZ        -0.00000   0.00000   0.00000  -0.00001   0.00006
  61 7   H  1S         -0.00001   0.00003   0.00001   0.00004  -0.00004
  62        2S          0.00003  -0.00011   0.00001   0.00012   0.00018
  63        3PX         0.00001   0.00001   0.00000  -0.00001  -0.00004
  64        3PY        -0.00001   0.00000  -0.00001   0.00000  -0.00000
  65        3PZ        -0.00000   0.00001  -0.00001  -0.00001   0.00000
  66 8   H  1S          0.00001   0.00001  -0.00004  -0.00006  -0.00004
  67        2S         -0.00019  -0.00020   0.00011  -0.00002  -0.00022
  68        3PX         0.00002   0.00001  -0.00002   0.00001   0.00002
  69        3PY         0.00001  -0.00003  -0.00000  -0.00003  -0.00002
  70        3PZ        -0.00001  -0.00002   0.00001   0.00000  -0.00001
  71 9   H  1S          0.00002  -0.00002   0.00004  -0.00001   0.00005
  72        2S         -0.00015  -0.00004  -0.00026   0.00012   0.00014
  73        3PX         0.00003  -0.00001   0.00003   0.00001  -0.00002
  74        3PY        -0.00001   0.00001  -0.00002   0.00001   0.00001
  75        3PZ         0.00000  -0.00001   0.00002  -0.00002   0.00004
  76 10  N  1S         -0.00000   0.00000   0.00000  -0.00000   0.00000
  77        2S         -0.00000   0.00001   0.00001  -0.00001   0.00001
  78        2PX         0.00000  -0.00001   0.00000  -0.00000  -0.00001
  79        2PY        -0.00000   0.00000  -0.00000   0.00000   0.00000
  80        2PZ        -0.00000   0.00000  -0.00000   0.00000   0.00001
  81        3S         -0.00001  -0.00005  -0.00006   0.00014  -0.00001
  82        3PX        -0.00001   0.00004   0.00003  -0.00004   0.00002
  83        3PY         0.00002  -0.00003   0.00001  -0.00003   0.00001
  84        3PZ         0.00002  -0.00000   0.00002  -0.00003  -0.00012
  85        4XX        -0.00000   0.00001   0.00000   0.00000   0.00001
  86        4YY        -0.00000   0.00001   0.00001  -0.00001   0.00002
  87        4ZZ        -0.00000   0.00001   0.00000  -0.00000   0.00000
  88        4XY         0.00000  -0.00000  -0.00000   0.00000  -0.00000
  89        4XZ         0.00000  -0.00000  -0.00000   0.00000   0.00000
  90        4YZ        -0.00000   0.00000  -0.00000   0.00000   0.00000
  91 11  H  1S          0.00001  -0.00001   0.00000  -0.00001  -0.00001
  92        2S          0.00001  -0.00003  -0.00000  -0.00001  -0.00004
  93        3PX        -0.00000   0.00000  -0.00000   0.00000   0.00001
  94        3PY         0.00000  -0.00000  -0.00000   0.00000  -0.00001
  95        3PZ         0.00000  -0.00000  -0.00000   0.00000   0.00000
  96 12  H  1S         -0.00000   0.00001  -0.00000  -0.00000   0.00000
  97        2S         -0.00000   0.00002  -0.00000   0.00001  -0.00004
  98        3PX         0.00000  -0.00000   0.00000   0.00000  -0.00000
  99        3PY         0.00000  -0.00000   0.00000  -0.00000   0.00001
 100        3PZ        -0.00000   0.00000  -0.00000   0.00000   0.00000
 101 13  H  1S         -0.00000   0.00000   0.00000   0.00000   0.00001
 102        2S         -0.00001  -0.00001  -0.00000  -0.00000   0.00012
 103        3PX         0.00000  -0.00000  -0.00000   0.00000  -0.00001
 104        3PY        -0.00000   0.00000  -0.00000   0.00000   0.00000
 105        3PZ        -0.00000   0.00000   0.00000   0.00000  -0.00001
 106 14  C  1S         -0.00004  -0.00004  -0.00002  -0.00001  -0.00002
 107        2S         -0.00009  -0.00003  -0.00014  -0.00006   0.00008
 108        2PX        -0.00003  -0.00000  -0.00000   0.00006   0.00006
 109        2PY        -0.00003   0.00004  -0.00002   0.00002  -0.00005
 110        2PZ         0.00000  -0.00001  -0.00006  -0.00002   0.00031
 111        3S          0.00120   0.00080   0.00088   0.00019  -0.00108
 112        3PX        -0.00027  -0.00004  -0.00031  -0.00073  -0.00030
 113        3PY        -0.00032   0.00045  -0.00023   0.00079   0.00036
 114        3PZ        -0.00003   0.00003  -0.00007   0.00022  -0.00089
 115        4XX        -0.00012  -0.00008   0.00001  -0.00004   0.00000
 116        4YY        -0.00009  -0.00014   0.00001   0.00006   0.00003
 117        4ZZ        -0.00007  -0.00007  -0.00004  -0.00001   0.00027
 118        4XY        -0.00003   0.00001   0.00003   0.00002  -0.00000
 119        4XZ        -0.00001  -0.00000  -0.00001   0.00003   0.00005
 120        4YZ        -0.00000   0.00003   0.00001  -0.00002  -0.00002
 121 15  O  1S          0.00000   0.00000   0.00001  -0.00019   0.99275
 122        2S          0.00001   0.00003  -0.00013  -0.00008   0.02584
 123        2PX         0.00002   0.00001   0.00002   0.00001  -0.00083
 124        2PY         0.00001   0.00000   0.00005  -0.00002  -0.00011
 125        2PZ         0.00001   0.00002   0.00005   0.00000  -0.00042
 126        3S         -0.00021  -0.00027   0.00039   0.00023   0.01213
 127        3PX        -0.00002  -0.00002  -0.00004   0.00006  -0.00013
 128        3PY         0.00003  -0.00013  -0.00017   0.00014   0.00005
 129        3PZ         0.00017   0.00011  -0.00021  -0.00005  -0.00038
 130        4XX         0.00003  -0.00001  -0.00012  -0.00003  -0.00800
 131        4YY        -0.00002   0.00001  -0.00009   0.00000  -0.00809
 132        4ZZ        -0.00000   0.00000  -0.00009  -0.00005  -0.00818
 133        4XY         0.00003  -0.00001   0.00003  -0.00000   0.00001
 134        4XZ        -0.00001   0.00001   0.00002  -0.00002  -0.00005
 135        4YZ         0.00000   0.00001   0.00002  -0.00000   0.00000
 136 16  H  1S         -0.00002   0.00002  -0.00007  -0.00008   0.00030
 137        2S         -0.00023  -0.00013   0.00042   0.00016  -0.00156
 138        3PX        -0.00002  -0.00000   0.00003   0.00001  -0.00013
 139        3PY        -0.00001  -0.00002  -0.00001  -0.00001  -0.00003
 140        3PZ        -0.00002   0.00002  -0.00002   0.00001   0.00011
 141 17  P  1S          0.99625   0.00018   0.00001  -0.00000   0.00000
 142        2S          0.01417  -0.00000   0.00001   0.00000   0.00001
 143        2PX         0.00003   0.00001  -0.00003  -0.00000   0.00000
 144        2PY        -0.00002   0.00001   0.00006   0.00001  -0.00000
 145        2PZ         0.00000  -0.00000  -0.00000   0.00000  -0.00000
 146        3S         -0.02720   0.00010   0.00006   0.00001   0.00013
 147        3PX        -0.00018  -0.00008   0.00012  -0.00000   0.00001
 148        3PY        -0.00004  -0.00006  -0.00005  -0.00005   0.00004
 149        3PZ        -0.00003   0.00002   0.00004  -0.00001   0.00007
 150        4S          0.00286  -0.00007  -0.00270  -0.00009   0.00005
 151        4PX         0.00015   0.00006  -0.00082  -0.00002  -0.00021
 152        4PY         0.00027  -0.00012   0.00130  -0.00004   0.00021
 153        4PZ        -0.00006   0.00003  -0.00119   0.00018   0.00020
 154        5XX         0.00941  -0.00005   0.00006   0.00001   0.00002
 155        5YY         0.00942  -0.00008   0.00030  -0.00003  -0.00005
 156        5ZZ         0.00946  -0.00003  -0.00003  -0.00001  -0.00003
 157        5XY        -0.00002  -0.00004  -0.00012  -0.00003   0.00001
 158        5XZ        -0.00002  -0.00001   0.00004  -0.00003  -0.00003
 159        5YZ        -0.00003  -0.00002   0.00005  -0.00002  -0.00000
 160 18  P  1S         -0.00018   0.99625   0.00000   0.00001   0.00000
 161        2S          0.00000   0.01417   0.00001   0.00003   0.00005
 162        2PX        -0.00000   0.00003  -0.00000  -0.00005  -0.00001
 163        2PY        -0.00001  -0.00001   0.00000  -0.00001   0.00001
 164        2PZ         0.00000   0.00002   0.00000  -0.00004   0.00000
 165        3S          0.00015  -0.02721   0.00005   0.00014   0.00028
 166        3PX         0.00001  -0.00008   0.00001   0.00011   0.00012
 167        3PY         0.00008   0.00014  -0.00002  -0.00014  -0.00013
 168        3PZ        -0.00004  -0.00007  -0.00001   0.00010   0.00004
 169        4S         -0.00030   0.00297  -0.00029  -0.00325  -0.00123
 170        4PX         0.00011   0.00012   0.00040  -0.00084  -0.00012
 171        4PY         0.00012  -0.00030   0.00017   0.00025   0.00040
 172        4PZ         0.00005  -0.00012   0.00002  -0.00151  -0.00050
 173        5XX        -0.00003   0.00943   0.00000   0.00016   0.00002
 174        5YY        -0.00011   0.00939  -0.00001   0.00011   0.00002
 175        5ZZ        -0.00004   0.00948   0.00001   0.00009   0.00000
 176        5XY        -0.00002  -0.00000   0.00000   0.00010  -0.00002
 177        5XZ         0.00001  -0.00001   0.00002   0.00019   0.00003
 178        5YZ         0.00000   0.00002  -0.00000   0.00006  -0.00002
 179 19  O  1S          0.00000   0.00001  -0.00004   0.00000  -0.00001
 180        2S         -0.00006   0.00003  -0.00023   0.00005   0.00000
 181        2PX        -0.00009   0.00001   0.00000   0.00002   0.00000
 182        2PY         0.00002   0.00001   0.00003  -0.00000  -0.00001
 183        2PZ         0.00014  -0.00001  -0.00003   0.00000  -0.00004
 184        3S          0.00062  -0.00012   0.00147  -0.00024  -0.00000
 185        3PX         0.00021  -0.00005   0.00023  -0.00008   0.00010
 186        3PY        -0.00007  -0.00002  -0.00022   0.00001   0.00006
 187        3PZ        -0.00033   0.00005  -0.00013  -0.00001   0.00024
 188        4XX        -0.00004   0.00003  -0.00012   0.00003  -0.00000
 189        4YY         0.00003   0.00003  -0.00019   0.00005   0.00001
 190        4ZZ        -0.00015   0.00003  -0.00015   0.00004  -0.00001
 191        4XY         0.00000  -0.00001   0.00002  -0.00001   0.00001
 192        4XZ         0.00014   0.00002  -0.00000  -0.00000   0.00003
 193        4YZ         0.00000   0.00000  -0.00001  -0.00001   0.00001
 194 20  O  1S          0.00000   0.00001  -0.00001  -0.00004  -0.00003
 195        2S          0.00002  -0.00006  -0.00007  -0.00019  -0.00016
 196        2PX        -0.00001  -0.00015  -0.00001   0.00001  -0.00003
 197        2PY        -0.00001   0.00004   0.00000   0.00001   0.00002
 198        2PZ         0.00001   0.00007   0.00000  -0.00006  -0.00003
 199        3S         -0.00003   0.00062   0.00037   0.00117   0.00074
 200        3PX         0.00003   0.00037   0.00005   0.00030   0.00021
 201        3PY         0.00006  -0.00007  -0.00004  -0.00015  -0.00015
 202        3PZ        -0.00003  -0.00016  -0.00004   0.00021   0.00010
 203        4XX         0.00002  -0.00015  -0.00005  -0.00013  -0.00009
 204        4YY        -0.00001   0.00000  -0.00005  -0.00011  -0.00011
 205        4ZZ         0.00002   0.00001  -0.00004  -0.00013  -0.00013
 206        4XY        -0.00001   0.00010  -0.00001  -0.00004  -0.00003
 207        4XZ         0.00000   0.00009  -0.00000  -0.00001   0.00001
 208        4YZ        -0.00000  -0.00004  -0.00000  -0.00003  -0.00001
 209 21  O  1S          0.00002   0.00001  -0.00001  -0.00001   0.00000
 210        2S         -0.00002   0.00003   0.00008  -0.00003   0.00001
 211        2PX        -0.00006   0.00001  -0.00001  -0.00000  -0.00001
 212        2PY         0.00005   0.00001   0.00002   0.00001   0.00001
 213        2PZ        -0.00016  -0.00001   0.00002  -0.00000   0.00002
 214        3S          0.00038  -0.00009  -0.00035   0.00017  -0.00002
 215        3PX         0.00011  -0.00006   0.00009   0.00002   0.00005
 216        3PY        -0.00015  -0.00005  -0.00016  -0.00004  -0.00005
 217        3PZ         0.00035   0.00001   0.00002   0.00003  -0.00005
 218        4XX         0.00003   0.00002   0.00009  -0.00002   0.00001
 219        4YY         0.00006   0.00001   0.00003  -0.00002   0.00002
 220        4ZZ        -0.00013   0.00003   0.00008  -0.00002   0.00001
 221        4XY         0.00003  -0.00002   0.00002  -0.00001  -0.00001
 222        4XZ        -0.00011  -0.00001   0.00001   0.00000   0.00000
 223        4YZ         0.00006  -0.00000  -0.00001  -0.00000  -0.00001
 224 22  O  1S          0.00000   0.00002  -0.00000  -0.00003   0.00000
 225        2S          0.00000   0.00002  -0.00000  -0.00005   0.00001
 226        2PX        -0.00001   0.00005   0.00002  -0.00005  -0.00001
 227        2PY        -0.00001   0.00000  -0.00000  -0.00000   0.00001
 228        2PZ         0.00001  -0.00016  -0.00000  -0.00001  -0.00000
 229        3S         -0.00000   0.00024   0.00000   0.00035  -0.00001
 230        3PX         0.00001  -0.00010  -0.00008   0.00020   0.00004
 231        3PY         0.00002   0.00004  -0.00001  -0.00002  -0.00004
 232        3PZ        -0.00002   0.00035  -0.00000   0.00027   0.00004
 233        4XX         0.00002   0.00008   0.00001  -0.00005   0.00002
 234        4YY         0.00001   0.00009   0.00000  -0.00002   0.00001
 235        4ZZ         0.00001  -0.00015   0.00000  -0.00001   0.00002
 236        4XY        -0.00001  -0.00001  -0.00000  -0.00002   0.00000
 237        4XZ         0.00000   0.00007  -0.00001  -0.00001   0.00000
 238        4YZ         0.00000   0.00005  -0.00000  -0.00002   0.00001
 239 23  O  1S         -0.00000  -0.00002   0.00000   0.99273   0.00015
 240        2S         -0.00001  -0.00005   0.00002   0.02581  -0.00011
 241        2PX         0.00000   0.00002  -0.00000   0.00020   0.00001
 242        2PY         0.00001   0.00000   0.00000   0.00018  -0.00001
 243        2PZ         0.00000   0.00004  -0.00001  -0.00088   0.00001
 244        3S          0.00002   0.00080  -0.00011   0.01234   0.00059
 245        3PX        -0.00001  -0.00017   0.00001  -0.00048  -0.00006
 246        3PY        -0.00003  -0.00002  -0.00000  -0.00043  -0.00006
 247        3PZ        -0.00000  -0.00033   0.00003  -0.00010  -0.00008
 248        4XX        -0.00000  -0.00012   0.00001  -0.00813  -0.00004
 249        4YY        -0.00000  -0.00010   0.00001  -0.00812  -0.00004
 250        4ZZ        -0.00001  -0.00009   0.00000  -0.00813  -0.00004
 251        4XY         0.00000  -0.00005   0.00000   0.00002   0.00001
 252        4XZ         0.00000  -0.00013  -0.00000  -0.00005  -0.00004
 253        4YZ         0.00000  -0.00009  -0.00000  -0.00002  -0.00001
 254 24  H  1S          0.00001  -0.00012   0.00002   0.00030  -0.00007
 255        2S         -0.00002  -0.00023  -0.00009  -0.00092  -0.00002
 256        3PX         0.00000  -0.00000   0.00000   0.00012   0.00002
 257        3PY         0.00000  -0.00000   0.00001   0.00009   0.00001
 258        3PZ         0.00000  -0.00003   0.00000  -0.00007  -0.00002
 259 25  O  1S         -0.00002  -0.00000   0.99273   0.00000  -0.00006
 260        2S         -0.00008  -0.00000   0.02583  -0.00001  -0.00008
 261        2PX         0.00002  -0.00001   0.00001  -0.00000  -0.00001
 262        2PY        -0.00005  -0.00001   0.00032  -0.00001  -0.00003
 263        2PZ         0.00002   0.00000  -0.00088   0.00000  -0.00000
 264        3S          0.00094  -0.00002   0.01227   0.00002   0.00034
 265        3PX        -0.00012   0.00002  -0.00007   0.00000   0.00002
 266        3PY         0.00034   0.00002   0.00050   0.00004   0.00013
 267        3PZ        -0.00015  -0.00001   0.00041  -0.00001   0.00003
 268        4XX        -0.00009  -0.00000  -0.00814  -0.00001  -0.00007
 269        4YY        -0.00027   0.00000  -0.00817  -0.00000  -0.00005
 270        4ZZ        -0.00001  -0.00001  -0.00811  -0.00001  -0.00008
 271        4XY         0.00006   0.00000   0.00002   0.00000   0.00001
 272        4XZ        -0.00001   0.00000  -0.00001   0.00000   0.00001
 273        4YZ         0.00000  -0.00000   0.00003  -0.00000   0.00000
 274 26  H  1S         -0.00012  -0.00001   0.00036  -0.00000  -0.00000
 275        2S         -0.00021   0.00000  -0.00094   0.00004   0.00008
 276        3PX         0.00000  -0.00000   0.00003  -0.00000  -0.00001
 277        3PY         0.00000  -0.00000  -0.00007   0.00000   0.00000
 278        3PZ        -0.00001   0.00000  -0.00012   0.00001   0.00002
                           6         7         8         9        10
                           O         O         O         O         O
     Eigenvalues --   -19.06687 -19.06427 -19.05409 -19.05198 -14.47212
   1 1   C  1S         -0.00000  -0.00000   0.00000   0.00000  -0.00002
   2        2S         -0.00001  -0.00000  -0.00001   0.00002  -0.00011
   3        2PX        -0.00001   0.00001  -0.00002   0.00001   0.00023
   4        2PY        -0.00000   0.00000   0.00002  -0.00001   0.00008
   5        2PZ         0.00000  -0.00000  -0.00001   0.00000   0.00009
   6        3S          0.00015  -0.00007   0.00012  -0.00015   0.00023
   7        3PX         0.00005  -0.00011   0.00009   0.00004   0.00002
   8        3PY         0.00006  -0.00006  -0.00009  -0.00000   0.00011
   9        3PZ         0.00004  -0.00003   0.00025  -0.00003   0.00010
  10        4XX         0.00001  -0.00001   0.00001  -0.00000   0.00025
  11        4YY         0.00000  -0.00001   0.00002  -0.00001   0.00002
  12        4ZZ        -0.00000  -0.00000   0.00001   0.00001   0.00003
  13        4XY         0.00000  -0.00000  -0.00000   0.00001   0.00010
  14        4XZ         0.00000  -0.00001  -0.00001   0.00000   0.00011
  15        4YZ        -0.00000   0.00000   0.00001  -0.00000   0.00004
  16 2   C  1S          0.00001  -0.00002  -0.00001  -0.00000   0.00001
  17        2S          0.00005  -0.00011   0.00001  -0.00003   0.00011
  18        2PX         0.00001   0.00000   0.00007  -0.00004   0.00000
  19        2PY        -0.00000  -0.00001  -0.00003   0.00001  -0.00000
  20        2PZ         0.00000  -0.00001   0.00003  -0.00000  -0.00000
  21        3S         -0.00042   0.00086  -0.00024   0.00030  -0.00044
  22        3PX         0.00011  -0.00042  -0.00028   0.00019  -0.00021
  23        3PY         0.00005  -0.00007   0.00007   0.00020   0.00004
  24        3PZ         0.00013  -0.00017  -0.00017  -0.00008   0.00003
  25        4XX        -0.00001   0.00001  -0.00001   0.00000  -0.00005
  26        4YY         0.00001  -0.00003  -0.00001   0.00001   0.00001
  27        4ZZ         0.00001  -0.00003  -0.00005   0.00001   0.00002
  28        4XY         0.00000   0.00001   0.00002  -0.00003   0.00000
  29        4XZ        -0.00001   0.00002   0.00001  -0.00000  -0.00000
  30        4YZ        -0.00000   0.00001   0.00000  -0.00001  -0.00000
  31 3   H  1S          0.00000  -0.00001  -0.00002   0.00001  -0.00003
  32        2S         -0.00002  -0.00000  -0.00010   0.00004  -0.00004
  33        3PX        -0.00000   0.00000  -0.00001  -0.00000  -0.00005
  34        3PY        -0.00000   0.00000  -0.00001   0.00001  -0.00003
  35        3PZ        -0.00000   0.00000  -0.00001   0.00000  -0.00002
  36 4   H  1S         -0.00001   0.00001   0.00003  -0.00000  -0.00003
  37        2S          0.00001  -0.00002   0.00011   0.00002  -0.00004
  38        3PX        -0.00001   0.00001  -0.00001  -0.00000  -0.00005
  39        3PY        -0.00000   0.00000   0.00000  -0.00000  -0.00002
  40        3PZ         0.00000  -0.00000   0.00001  -0.00000  -0.00003
  41 5   C  1S          0.00000  -0.00001  -0.00001   0.00002  -0.00000
  42        2S          0.00002  -0.00004  -0.00004   0.00005  -0.00001
  43        2PX        -0.00002   0.00010  -0.00002  -0.00002  -0.00001
  44        2PY        -0.00002   0.00002  -0.00006   0.00008   0.00000
  45        2PZ        -0.00003   0.00003  -0.00003  -0.00001   0.00000
  46        3S         -0.00009  -0.00001  -0.00029  -0.00003  -0.00003
  47        3PX         0.00048  -0.00094   0.00026   0.00013   0.00014
  48        3PY         0.00030  -0.00031   0.00016  -0.00053  -0.00003
  49        3PZ        -0.00011   0.00007  -0.00012   0.00020  -0.00003
  50        4XX         0.00000  -0.00005  -0.00004   0.00003   0.00001
  51        4YY         0.00000  -0.00002  -0.00002   0.00006  -0.00000
  52        4ZZ        -0.00001  -0.00003  -0.00002   0.00004  -0.00000
  53        4XY        -0.00000  -0.00002   0.00000   0.00002   0.00001
  54        4XZ         0.00003  -0.00004   0.00001   0.00000   0.00001
  55        4YZ         0.00000   0.00001  -0.00003  -0.00000  -0.00000
  56 6   H  1S          0.00001  -0.00002   0.00004  -0.00001   0.00002
  57        2S         -0.00001  -0.00002   0.00011   0.00002   0.00005
  58        3PX        -0.00001   0.00002   0.00002  -0.00001   0.00001
  59        3PY        -0.00000   0.00000  -0.00001  -0.00001  -0.00000
  60        3PZ        -0.00000  -0.00000  -0.00002   0.00000   0.00000
  61 7   H  1S          0.00001  -0.00003  -0.00006   0.00002   0.00002
  62        2S          0.00002  -0.00002   0.00036  -0.00044   0.00007
  63        3PX        -0.00000   0.00001  -0.00003   0.00001   0.00001
  64        3PY         0.00000  -0.00001  -0.00001   0.00002   0.00000
  65        3PZ        -0.00001   0.00000  -0.00000   0.00000   0.00000
  66 8   H  1S          0.00004  -0.00006   0.00006   0.00008  -0.00001
  67        2S         -0.00017   0.00030  -0.00006  -0.00005   0.00001
  68        3PX        -0.00002   0.00003  -0.00003   0.00000  -0.00001
  69        3PY        -0.00001   0.00001   0.00002   0.00001   0.00000
  70        3PZ        -0.00001   0.00002  -0.00003  -0.00001   0.00000
  71 9   H  1S          0.00002  -0.00004   0.00002  -0.00006  -0.00001
  72        2S          0.00024  -0.00019   0.00017  -0.00025   0.00001
  73        3PX        -0.00002   0.00004  -0.00001  -0.00001  -0.00001
  74        3PY         0.00001  -0.00001   0.00002  -0.00002   0.00000
  75        3PZ        -0.00001   0.00001   0.00000   0.00000   0.00000
  76 10  N  1S          0.00000  -0.00001  -0.00000   0.00000   0.99262
  77        2S          0.00002  -0.00003  -0.00000   0.00001   0.03485
  78        2PX        -0.00000   0.00001   0.00000  -0.00000   0.00016
  79        2PY         0.00000  -0.00000  -0.00001   0.00000   0.00005
  80        2PZ        -0.00000  -0.00000   0.00000   0.00000   0.00006
  81        3S         -0.00011   0.00017  -0.00004  -0.00006   0.00428
  82        3PX         0.00007  -0.00013   0.00002   0.00002   0.00013
  83        3PY         0.00000   0.00002   0.00012  -0.00005   0.00009
  84        3PZ         0.00002  -0.00002  -0.00001   0.00000   0.00010
  85        4XX         0.00000  -0.00001  -0.00001   0.00001  -0.00851
  86        4YY         0.00001  -0.00002   0.00000   0.00001  -0.00840
  87        4ZZ         0.00001  -0.00002  -0.00000   0.00001  -0.00841
  88        4XY        -0.00000   0.00001  -0.00001   0.00000  -0.00005
  89        4XZ        -0.00000   0.00001   0.00000  -0.00000  -0.00005
  90        4YZ        -0.00000  -0.00000  -0.00000   0.00000  -0.00002
  91 11  H  1S         -0.00000   0.00001   0.00001  -0.00000   0.00032
  92        2S         -0.00001   0.00003   0.00002  -0.00002  -0.00047
  93        3PX        -0.00000  -0.00000  -0.00000   0.00000  -0.00001
  94        3PY        -0.00000   0.00000  -0.00000  -0.00000   0.00001
  95        3PZ        -0.00000   0.00001   0.00000  -0.00000   0.00000
  96 12  H  1S          0.00001  -0.00002  -0.00001   0.00001   0.00030
  97        2S         -0.00000   0.00001  -0.00009   0.00006  -0.00052
  98        3PX        -0.00000   0.00000   0.00000  -0.00001   0.00000
  99        3PY         0.00000  -0.00000   0.00001  -0.00000  -0.00001
 100        3PZ        -0.00000  -0.00000  -0.00000   0.00000  -0.00000
 101 13  H  1S          0.00000  -0.00001   0.00000   0.00000   0.00030
 102        2S         -0.00001   0.00002   0.00001  -0.00000  -0.00052
 103        3PX        -0.00000   0.00000   0.00000  -0.00000   0.00000
 104        3PY         0.00000  -0.00000  -0.00001   0.00000  -0.00000
 105        3PZ         0.00000  -0.00001  -0.00000   0.00000  -0.00001
 106 14  C  1S         -0.00003  -0.00002  -0.00004  -0.00001  -0.00000
 107        2S         -0.00019  -0.00011  -0.00022  -0.00011  -0.00001
 108        2PX         0.00000   0.00001  -0.00004   0.00003   0.00001
 109        2PY         0.00004  -0.00003  -0.00001  -0.00000   0.00000
 110        2PZ        -0.00001   0.00006   0.00005  -0.00004   0.00000
 111        3S          0.00131   0.00037   0.00136   0.00061   0.00010
 112        3PX        -0.00028  -0.00060   0.00046  -0.00033   0.00001
 113        3PY        -0.00063   0.00036   0.00057   0.00031  -0.00004
 114        3PZ         0.00053  -0.00056  -0.00053  -0.00008  -0.00006
 115        4XX        -0.00001   0.00003  -0.00005   0.00001   0.00000
 116        4YY        -0.00004  -0.00001   0.00001   0.00003   0.00000
 117        4ZZ         0.00003  -0.00004  -0.00003  -0.00002  -0.00000
 118        4XY         0.00000   0.00003  -0.00001  -0.00002  -0.00000
 119        4XZ         0.00002   0.00004  -0.00001   0.00000  -0.00000
 120        4YZ         0.00001  -0.00000  -0.00003  -0.00001   0.00000
 121 15  O  1S          0.00001  -0.00000   0.00001  -0.00004   0.00000
 122        2S          0.00001  -0.00002   0.00003  -0.00013  -0.00000
 123        2PX         0.00002  -0.00001  -0.00000   0.00002   0.00000
 124        2PY         0.00003  -0.00002   0.00003  -0.00004  -0.00000
 125        2PZ        -0.00004  -0.00001  -0.00001   0.00002  -0.00000
 126        3S         -0.00014   0.00026  -0.00004   0.00048   0.00002
 127        3PX        -0.00015   0.00008  -0.00007  -0.00001  -0.00002
 128        3PY        -0.00012   0.00004  -0.00015   0.00016   0.00001
 129        3PZ         0.00036  -0.00005   0.00008  -0.00012  -0.00000
 130        4XX         0.00001  -0.00000   0.00004  -0.00012   0.00000
 131        4YY         0.00002  -0.00000   0.00003  -0.00008   0.00000
 132        4ZZ        -0.00008   0.00002   0.00002  -0.00010   0.00000
 133        4XY         0.00002  -0.00000   0.00002  -0.00003  -0.00000
 134        4XZ         0.00000  -0.00002   0.00001   0.00000  -0.00000
 135        4YZ        -0.00001   0.00000   0.00002  -0.00001  -0.00000
 136 16  H  1S         -0.00007   0.00003   0.00002  -0.00003  -0.00001
 137        2S         -0.00036  -0.00025  -0.00015   0.00015  -0.00000
 138        3PX         0.00010  -0.00001  -0.00003   0.00003  -0.00000
 139        3PY         0.00005   0.00000   0.00000   0.00000  -0.00000
 140        3PZ         0.00007   0.00002   0.00000  -0.00001   0.00000
 141 17  P  1S          0.00001   0.00002  -0.00000  -0.00000  -0.00000
 142        2S         -0.00007  -0.00006  -0.00004  -0.00001  -0.00000
 143        2PX         0.00001  -0.00001   0.00000   0.00000   0.00000
 144        2PY        -0.00001  -0.00000   0.00000  -0.00001   0.00000
 145        2PZ        -0.00001   0.00002  -0.00001  -0.00000   0.00000
 146        3S          0.00065   0.00079  -0.00011  -0.00008  -0.00000
 147        3PX        -0.00006   0.00010  -0.00004   0.00001  -0.00001
 148        3PY         0.00006   0.00003  -0.00005   0.00002  -0.00000
 149        3PZ         0.00016  -0.00020   0.00010   0.00004  -0.00000
 150        4S         -0.00301  -0.00320   0.00065  -0.00016  -0.00000
 151        4PX         0.00055   0.00006   0.00025   0.00006   0.00001
 152        4PY        -0.00039  -0.00059   0.00009  -0.00014  -0.00001
 153        4PZ        -0.00208   0.00230  -0.00010  -0.00024  -0.00001
 154        5XX        -0.00021  -0.00020  -0.00004  -0.00002  -0.00001
 155        5YY        -0.00020  -0.00023  -0.00004   0.00007  -0.00000
 156        5ZZ        -0.00013  -0.00012  -0.00003  -0.00003  -0.00000
 157        5XY         0.00000  -0.00001   0.00000  -0.00001  -0.00000
 158        5XZ        -0.00017   0.00009   0.00003   0.00001   0.00000
 159        5YZ         0.00001  -0.00006   0.00002   0.00002   0.00000
 160 18  P  1S         -0.00000  -0.00000   0.00002   0.00001   0.00000
 161        2S         -0.00003  -0.00001  -0.00003  -0.00010   0.00000
 162        2PX        -0.00000   0.00000  -0.00001   0.00002  -0.00000
 163        2PY         0.00000   0.00000   0.00001   0.00000   0.00000
 164        2PZ         0.00001   0.00000   0.00002  -0.00001  -0.00000
 165        3S         -0.00006  -0.00006   0.00096   0.00057   0.00001
 166        3PX         0.00006   0.00002   0.00012  -0.00019   0.00001
 167        3PY         0.00000   0.00001  -0.00011   0.00000  -0.00000
 168        3PZ        -0.00005  -0.00002  -0.00016   0.00011   0.00001
 169        4S          0.00059  -0.00044  -0.00417  -0.00240  -0.00004
 170        4PX        -0.00019  -0.00005  -0.00138   0.00213  -0.00003
 171        4PY        -0.00022   0.00018   0.00059  -0.00038   0.00001
 172        4PZ         0.00018   0.00017   0.00194  -0.00125   0.00002
 173        5XX        -0.00003   0.00001  -0.00026  -0.00009   0.00000
 174        5YY         0.00000  -0.00001  -0.00024  -0.00022   0.00000
 175        5ZZ        -0.00004  -0.00003  -0.00008  -0.00024   0.00000
 176        5XY        -0.00001   0.00003   0.00003  -0.00004  -0.00000
 177        5XZ        -0.00000   0.00005  -0.00005  -0.00007   0.00000
 178        5YZ         0.00002   0.00003  -0.00002   0.00004  -0.00000
 179 19  O  1S          0.99274   0.00094   0.00002  -0.00005  -0.00000
 180        2S          0.02563   0.00004   0.00002  -0.00010  -0.00000
 181        2PX         0.00039   0.00003   0.00000   0.00000   0.00000
 182        2PY        -0.00004  -0.00004   0.00001  -0.00002  -0.00000
 183        2PZ        -0.00061   0.00002  -0.00001   0.00001   0.00000
 184        3S          0.01255  -0.00013  -0.00010   0.00044   0.00001
 185        3PX         0.00041  -0.00008  -0.00002   0.00003   0.00000
 186        3PY         0.00007   0.00017  -0.00003   0.00007   0.00000
 187        3PZ        -0.00032  -0.00030   0.00006  -0.00009  -0.00000
 188        4XX        -0.00813   0.00001   0.00002  -0.00008  -0.00000
 189        4YY        -0.00816   0.00002   0.00001  -0.00005  -0.00000
 190        4ZZ        -0.00815   0.00008   0.00002  -0.00006  -0.00000
 191        4XY         0.00000   0.00002   0.00000   0.00000   0.00000
 192        4XZ         0.00001  -0.00003   0.00001  -0.00001  -0.00000
 193        4YZ        -0.00000   0.00000   0.00001  -0.00001  -0.00000
 194 20  O  1S          0.00002   0.00004  -0.00138   0.99274   0.00000
 195        2S         -0.00002  -0.00009  -0.00003   0.02562   0.00000
 196        2PX         0.00002   0.00001   0.00001   0.00064  -0.00000
 197        2PY         0.00004   0.00004  -0.00001  -0.00022   0.00000
 198        2PZ         0.00000   0.00003   0.00006  -0.00027   0.00000
 199        3S         -0.00001   0.00039  -0.00009   0.01258  -0.00001
 200        3PX        -0.00007   0.00000   0.00014   0.00041   0.00000
 201        3PY        -0.00012  -0.00016  -0.00003  -0.00030  -0.00000
 202        3PZ        -0.00000  -0.00013  -0.00039  -0.00010  -0.00000
 203        4XX        -0.00003  -0.00007   0.00008  -0.00814   0.00000
 204        4YY         0.00000  -0.00007   0.00005  -0.00814   0.00000
 205        4ZZ        -0.00005  -0.00008   0.00005  -0.00815   0.00000
 206        4XY         0.00001   0.00000  -0.00000  -0.00001  -0.00000
 207        4XZ        -0.00001  -0.00001  -0.00004   0.00001  -0.00000
 208        4YZ        -0.00000   0.00003   0.00003   0.00000  -0.00000
 209 21  O  1S         -0.00092   0.99273  -0.00008  -0.00008   0.00000
 210        2S         -0.00002   0.02558  -0.00004  -0.00008   0.00000
 211        2PX         0.00006   0.00026  -0.00002  -0.00000   0.00000
 212        2PY        -0.00003  -0.00022  -0.00004  -0.00005  -0.00000
 213        2PZ        -0.00003   0.00066  -0.00000  -0.00002   0.00000
 214        3S         -0.00003   0.01279   0.00011   0.00031  -0.00001
 215        3PX        -0.00021   0.00041   0.00006   0.00002  -0.00000
 216        3PY         0.00009  -0.00010   0.00013   0.00016   0.00000
 217        3PZ         0.00037   0.00043   0.00002   0.00014  -0.00000
 218        4XX        -0.00000  -0.00816  -0.00005  -0.00009   0.00000
 219        4YY         0.00004  -0.00818  -0.00004  -0.00005   0.00000
 220        4ZZ         0.00010  -0.00818  -0.00005  -0.00005   0.00000
 221        4XY         0.00001  -0.00001   0.00003   0.00001   0.00000
 222        4XZ         0.00002   0.00002   0.00002   0.00002  -0.00000
 223        4YZ        -0.00001  -0.00000  -0.00000   0.00001   0.00000
 224 22  O  1S         -0.00001   0.00004   0.99272   0.00141  -0.00000
 225        2S          0.00002  -0.00012   0.02553   0.00013  -0.00001
 226        2PX        -0.00002   0.00002  -0.00019   0.00007  -0.00000
 227        2PY        -0.00001   0.00002  -0.00005  -0.00002   0.00000
 228        2PZ         0.00000  -0.00000   0.00068   0.00003  -0.00000
 229        3S         -0.00009   0.00056   0.01305  -0.00045   0.00005
 230        3PX         0.00007  -0.00008   0.00000  -0.00041   0.00000
 231        3PY         0.00005  -0.00008  -0.00025   0.00010  -0.00000
 232        3PZ        -0.00002   0.00009   0.00064   0.00003   0.00001
 233        4XX         0.00001  -0.00008  -0.00820   0.00007  -0.00001
 234        4YY         0.00002  -0.00009  -0.00820   0.00007  -0.00001
 235        4ZZ         0.00002  -0.00008  -0.00819   0.00010  -0.00001
 236        4XY        -0.00001   0.00002  -0.00000   0.00002   0.00000
 237        4XZ         0.00000  -0.00001   0.00002  -0.00005   0.00000
 238        4YZ         0.00000  -0.00000  -0.00001   0.00001  -0.00000
 239 23  O  1S          0.00002  -0.00000  -0.00002  -0.00003   0.00000
 240        2S          0.00003  -0.00001  -0.00016  -0.00008   0.00000
 241        2PX        -0.00001   0.00000   0.00000   0.00001   0.00000
 242        2PY        -0.00000   0.00001   0.00002  -0.00002  -0.00000
 243        2PZ         0.00001   0.00001   0.00003  -0.00004  -0.00000
 244        3S         -0.00014   0.00005   0.00092   0.00048  -0.00001
 245        3PX         0.00005  -0.00000  -0.00009  -0.00025  -0.00001
 246        3PY         0.00004  -0.00005  -0.00022   0.00005   0.00000
 247        3PZ        -0.00003  -0.00003  -0.00037   0.00018   0.00000
 248        4XX         0.00002  -0.00002  -0.00009  -0.00008   0.00000
 249        4YY         0.00003  -0.00000  -0.00005  -0.00006   0.00000
 250        4ZZ         0.00003  -0.00001  -0.00010  -0.00008   0.00000
 251        4XY         0.00000  -0.00000   0.00001   0.00002   0.00000
 252        4XZ        -0.00000  -0.00000   0.00001   0.00002   0.00000
 253        4YZ        -0.00000   0.00000   0.00002  -0.00002  -0.00000
 254 24  H  1S         -0.00002  -0.00000  -0.00006   0.00003   0.00000
 255        2S          0.00002   0.00003   0.00028  -0.00014   0.00001
 256        3PX         0.00000  -0.00000   0.00000   0.00001  -0.00000
 257        3PY         0.00000  -0.00000   0.00001  -0.00001  -0.00000
 258        3PZ        -0.00001   0.00000  -0.00002   0.00004  -0.00000
 259 25  O  1S         -0.00005   0.00003   0.00001  -0.00001  -0.00000
 260        2S         -0.00013  -0.00004   0.00003  -0.00000  -0.00000
 261        2PX        -0.00001   0.00001   0.00000  -0.00001  -0.00000
 262        2PY         0.00002  -0.00001   0.00001  -0.00000  -0.00000
 263        2PZ        -0.00002   0.00003  -0.00000  -0.00001   0.00000
 264        3S          0.00080   0.00032  -0.00018   0.00002   0.00000
 265        3PX        -0.00006  -0.00009  -0.00000   0.00002   0.00000
 266        3PY         0.00008   0.00023  -0.00007  -0.00001   0.00000
 267        3PZ         0.00021  -0.00023  -0.00000   0.00004  -0.00000
 268        4XX        -0.00011   0.00001   0.00003  -0.00001  -0.00000
 269        4YY        -0.00009   0.00002   0.00003  -0.00002  -0.00000
 270        4ZZ        -0.00014  -0.00002   0.00002  -0.00001  -0.00000
 271        4XY         0.00002   0.00001   0.00000   0.00001   0.00000
 272        4XZ         0.00005  -0.00002   0.00000   0.00000  -0.00000
 273        4YZ        -0.00001   0.00000   0.00000   0.00001   0.00000
 274 26  H  1S          0.00006  -0.00007   0.00002   0.00002  -0.00000
 275        2S         -0.00028   0.00036  -0.00008  -0.00005  -0.00000
 276        3PX         0.00001  -0.00000   0.00000  -0.00000  -0.00000
 277        3PY        -0.00003   0.00004  -0.00001  -0.00000  -0.00000
 278        3PZ         0.00003  -0.00003  -0.00000   0.00000  -0.00000
                          11        12        13        14        15
                           O         O         O         O         O
     Eigenvalues --   -10.25723 -10.21256 -10.19314 -10.17899  -6.60139
   1 1   C  1S          0.99307  -0.00001  -0.00191   0.00002  -0.00000
   2        2S          0.04989  -0.00023  -0.00043   0.00000   0.00002
   3        2PX         0.00074   0.00003   0.00001   0.00008   0.00007
   4        2PY         0.00017  -0.00000  -0.00009  -0.00002   0.00000
   5        2PZ         0.00021   0.00003  -0.00008   0.00001  -0.00000
   6        3S         -0.01958   0.00159   0.00606  -0.00105  -0.00069
   7        3PX         0.00022  -0.00111  -0.00171  -0.00019  -0.00034
   8        3PY        -0.00126   0.00036   0.00152  -0.00054  -0.00061
   9        3PZ        -0.00114   0.00016   0.00125  -0.00066  -0.00019
  10        4XX        -0.00900  -0.00002  -0.00026  -0.00006  -0.00003
  11        4YY        -0.00875  -0.00009  -0.00026  -0.00003  -0.00003
  12        4ZZ        -0.00873  -0.00007  -0.00023  -0.00004  -0.00001
  13        4XY         0.00005  -0.00004   0.00014   0.00001   0.00002
  14        4XZ         0.00002  -0.00004   0.00012   0.00001  -0.00001
  15        4YZ        -0.00010   0.00001  -0.00012   0.00001  -0.00002
  16 2   C  1S          0.00161  -0.00008   0.99307  -0.00740  -0.00001
  17        2S         -0.00036   0.00000   0.05045  -0.00079  -0.00007
  18        2PX        -0.00010   0.00013   0.00026   0.00005  -0.00013
  19        2PY         0.00009  -0.00005  -0.00012   0.00009  -0.00002
  20        2PZ         0.00007  -0.00003  -0.00007   0.00005   0.00003
  21        3S          0.00588  -0.00126  -0.02181   0.00683   0.00145
  22        3PX         0.00226  -0.00016   0.00011  -0.00239   0.00027
  23        3PY        -0.00166   0.00134   0.00134  -0.00128  -0.00007
  24        3PZ        -0.00123   0.00064   0.00132  -0.00104  -0.00100
  25        4XX        -0.00023  -0.00009  -0.00900  -0.00022   0.00002
  26        4YY        -0.00027  -0.00004  -0.00870  -0.00018   0.00003
  27        4ZZ        -0.00026  -0.00001  -0.00866  -0.00016   0.00002
  28        4XY         0.00005  -0.00002   0.00002  -0.00012  -0.00002
  29        4XZ         0.00004   0.00000  -0.00002  -0.00011   0.00003
  30        4YZ        -0.00005  -0.00000  -0.00009  -0.00007   0.00002
  31 3   H  1S          0.00002  -0.00006  -0.00019   0.00005  -0.00001
  32        2S          0.00283   0.00004   0.00004  -0.00029  -0.00025
  33        3PX        -0.00004   0.00004  -0.00002   0.00006   0.00002
  34        3PY        -0.00012   0.00002   0.00004  -0.00001  -0.00000
  35        3PZ         0.00009  -0.00000  -0.00002   0.00003   0.00002
  36 4   H  1S          0.00003  -0.00011  -0.00019   0.00001   0.00002
  37        2S          0.00280   0.00002   0.00007  -0.00030   0.00000
  38        3PX        -0.00002   0.00004  -0.00003   0.00005   0.00003
  39        3PY         0.00008  -0.00001  -0.00001   0.00002   0.00002
  40        3PZ        -0.00014   0.00001   0.00005  -0.00000   0.00000
  41 5   C  1S         -0.00002   0.00288   0.00711   0.99309  -0.00001
  42        2S         -0.00001  -0.00030   0.00001   0.05046  -0.00018
  43        2PX        -0.00009   0.00001  -0.00010   0.00011   0.00010
  44        2PY         0.00003   0.00003  -0.00008   0.00010   0.00011
[...]
    11  H    0.210947   0.000000   0.167235  -0.098281  -0.079902   0.392352
    12  H    0.206272   0.000000   0.050177   0.196065  -0.036104   0.388152
    13  H    0.206532   0.000000   0.033595  -0.024372   0.201672   0.388468
    14  C   -0.009585   0.000000   0.053829  -0.027699   0.066247   0.055678
    15  O   -0.272507   0.000000  -0.114597  -0.018066  -0.107430  -0.461856
    16  H    0.111231   0.000000  -0.090388  -0.006401   0.096162   0.303238
    17  P    0.343254   0.000000   0.151993  -0.070123  -0.013763   0.311831
    18  P    0.321038   0.000000   0.139655  -0.062247   0.072810   0.293549
    19  O   -0.497695   0.000000   0.116880   0.024211  -0.056049  -0.523236
    20  O   -0.541394   0.000000   0.103278  -0.064805  -0.037240  -0.551609
    21  O   -0.522227   0.000000   0.062473  -0.030356   0.097124  -0.535175
    22  O   -0.535517   0.000000  -0.001726  -0.035471   0.126086  -0.551949
    23  O   -0.311306   0.000000   0.026156  -0.009876  -0.148580  -0.486876
    24  H    0.154323   0.000000   0.149359   0.102245  -0.117114   0.337002
    25  O   -0.298534   0.000000   0.023881   0.072370  -0.131034  -0.475188
    26  H    0.166322   0.000000   0.051698  -0.069860  -0.207269   0.346912
       Tot  -1.000001   0.000000   1.162707  -0.273537  -0.408549  -1.000001
 Hirshfeld charges with hydrogens summed into heavy atoms:
              Q-H       Q-CM5   
     1  C    0.182333   0.243864
     2  C    0.018764   0.040432
     5  C   -0.008245   0.023603
    10  N    0.699744   0.629778
    14  C   -0.009585   0.055678
    15  O   -0.161276  -0.158618
    17  P    0.343254   0.311831
    18  P    0.321038   0.293549
    19  O   -0.497695  -0.523236
    20  O   -0.541394  -0.551609
    21  O   -0.522227  -0.535175
    22  O   -0.535517  -0.551949
    23  O   -0.156983  -0.149874
    25  O   -0.132212  -0.128277
 
 EQQ= 0.000000000000E+00 EQD= 0.000000000000E+00 EDD= 0.932330257315E-02
 EQQ+QD+DD= 0.932330257315E-02
 
 Orbital energies and kinetic energies (alpha):
                                 1                 2
   1         O               -77.152678        106.045602
   2         O               -77.141956        106.045591
   3         O               -19.137189         29.026915
   4         O               -19.126154         29.027050
   5         O               -19.121917         29.027993
   6         O               -19.066870         29.028392
   7         O               -19.064274         29.028125
   8         O               -19.054085         29.027978
   9         O               -19.051975         29.028424
  10         O               -14.472118         21.955786
  11         O               -10.257228         15.886158
  12         O               -10.212556         15.891812
  13         O               -10.193143         15.885153
  14         O               -10.178989         15.885858
  15         O                -6.601390         15.694341
  16         O                -6.590365         15.694620
  17         O                -4.766332         14.709492
  18         O                -4.763477         14.711390
  19         O                -4.763248         14.704264
  20         O                -4.755473         14.709998
  21         O                -4.752475         14.709058
  22         O                -4.752083         14.706910
  23         O                -1.014652          1.855246
  24         O                -1.011493          2.466852
  25         O                -0.998819          2.534075
  26         O                -0.986788          2.574887
  27         O                -0.926795          2.787743
  28         O                -0.915688          2.781408
  29         O                -0.890260          2.892367
  30         O                -0.877244          2.889602
  31         O                -0.802562          1.437010
  32         O                -0.725693          1.575145
  33         O                -0.649470          1.551562
  34         O                -0.600894          1.515356
  35         O                -0.597174          1.322779
  36         O                -0.569697          1.514811
  37         O                -0.549243          2.116970
  38         O                -0.519490          1.868658
  39         O                -0.500538          1.669790
  40         O                -0.494701          1.512292
  41         O                -0.472377          1.217403
  42         O                -0.439278          1.727241
  43         O                -0.419225          2.151999
  44         O                -0.413375          1.794694
  45         O                -0.409761          1.812890
  46         O                -0.390716          1.667057
  47         O                -0.384812          1.693325
  48         O                -0.372405          2.068233
  49         O                -0.362876          1.841480
  50         O                -0.357174          1.759738
  51         O                -0.345300          1.497870
  52         O                -0.338958          2.065234
  53         O                -0.333947          2.207443
  54         O                -0.326324          2.322688
  55         O                -0.298123          2.162332
  56         O                -0.290575          2.140824
  57         O                -0.277457          2.148001
  58         O                -0.274847          2.104023
  59         O                -0.258465          2.193973
  60         O                -0.247370          2.144952
  61         O                -0.241291          2.237611
  62         O                -0.236025          2.278264
  63         O                -0.231485          2.248428
  64         O                -0.221129          2.303219
  65         O                -0.208952          2.239637
  66         V                 0.028562          1.141982
  67         V                 0.078104          1.524597
  68         V                 0.087417          1.182523
  69         V                 0.092966          1.150297
  70         V                 0.100447          1.421030
  71         V                 0.105537          1.658727
  72         V                 0.116149          1.723639
  73         V                 0.123283          1.646557
  74         V                 0.138437          1.518327
  75         V                 0.148640          1.164155
  76         V                 0.161460          2.021096
  77         V                 0.168366          1.872472
  78         V                 0.173932          1.692201
  79         V                 0.179244          1.544809
  80         V                 0.186750          1.821531
  81         V                 0.199852          1.680006
  82         V                 0.206080          1.996442
  83         V                 0.211647          1.929312
  84         V                 0.223089          2.045314
  85         V                 0.232240          1.537374
  86         V                 0.243188          1.813347
  87         V                 0.250829          2.060974
  88         V                 0.275138          2.291692
  89         V                 0.294430          1.964743
  90         V                 0.300854          2.091101
  91         V                 0.357292          2.428419
  92         V                 0.369971          2.448416
  93         V                 0.410849          2.348274
  94         V                 0.417667          2.502937
  95         V                 0.435849          2.040505
  96         V                 0.439741          2.076678
  97         V                 0.475921          2.536680
  98         V                 0.495805          2.273171
  99         V                 0.507412          2.271135
 100         V                 0.524849          1.674189
 101         V                 0.530994          2.171362
 102         V                 0.556461          2.159570
 103         V                 0.589961          2.290727
 104         V                 0.608792          2.162424
 105         V                 0.620929          2.309502
 106         V                 0.627586          2.704326
 107         V                 0.662649          2.266578
 108         V                 0.671849          2.485443
 109         V                 0.687136          2.395084
 110         V                 0.701763          2.295580
 111         V                 0.736436          2.394438
 112         V                 0.766311          2.473246
 113         V                 0.772443          2.622044
 114         V                 0.778866          2.567049
 115         V                 0.785999          2.637755
 116         V                 0.793889          2.674254
 117         V                 0.796208          2.701203
 118         V                 0.805258          2.738523
 119         V                 0.810591          2.668019
 120         V                 0.827655          2.274022
 121         V                 0.838347          2.538450
 122         V                 0.851490          2.584353
 123         V                 0.863352          2.385224
 124         V                 0.876490          2.561720
 125         V                 0.883281          2.577474
 126         V                 0.893046          2.556235
 127         V                 0.905367          2.522802
 128         V                 0.912976          2.621589
 129         V                 0.924002          2.665816
 130         V                 0.931701          2.698468
 131         V                 0.946822          2.612068
 132         V                 0.951919          2.838348
 133         V                 0.975358          2.933644
 134         V                 0.988006          2.773490
 135         V                 0.998518          2.903928
 136         V                 1.013556          3.021593
 137         V                 1.019455          2.538521
 138         V                 1.042071          3.274138
 139         V                 1.052168          3.042824
 140         V                 1.074872          3.113398
 141         V                 1.077520          2.939593
 142         V                 1.087160          3.059614
 143         V                 1.091711          3.224385
 144         V                 1.098379          3.171119
 145         V                 1.107729          3.275784
 146         V                 1.122396          3.348523
 147         V                 1.138722          2.940105
 148         V                 1.154136          2.815441
 149         V                 1.175292          3.695218
 150         V                 1.192450          3.365482
 151         V                 1.213297          3.676859
 152         V                 1.225421          3.477460
 153         V                 1.233320          3.967527
 154         V                 1.246591          3.408019
 155         V                 1.252308          2.963827
 156         V                 1.271703          3.224313
 157         V                 1.296215          3.000875
 158         V                 1.326374          3.073695
 159         V                 1.343260          3.026169
 160         V                 1.369133          2.755758
 161         V                 1.407057          2.759921
 162         V                 1.432727          2.675344
 163         V                 1.458545          2.675337
 164         V                 1.476541          2.735179
 165         V                 1.516105          2.733751
 166         V                 1.537608          2.687784
 167         V                 1.544152          2.644946
 168         V                 1.563611          2.784486
 169         V                 1.571145          2.728192
 170         V                 1.603307          2.684229
 171         V                 1.627010          2.681866
 172         V                 1.636811          2.692401
 173         V                 1.658637          2.765082
 174         V                 1.673233          2.808841
 175         V                 1.687574          2.775002
 176         V                 1.689002          2.817305
 177         V                 1.724560          2.887366
 178         V                 1.734468          2.868643
 179         V                 1.785031          2.935694
 180         V                 1.793586          2.990388
 181         V                 1.810091          3.159447
 182         V                 1.829116          3.121102
 183         V                 1.847982          3.008347
 184         V                 1.857305          2.879553
 185         V                 1.859705          2.883500
 186         V                 1.872618          3.113501
 187         V                 1.879197          2.952997
 188         V                 1.894101          3.094289
 189         V                 1.897070          3.034020
 190         V                 1.907095          3.075947
 191         V                 1.911287          3.134516
 192         V                 1.924270          3.026910
 193         V                 1.935592          3.070842
 194         V                 1.942295          3.182624
 195         V                 1.964803          3.225956
 196         V                 1.974225          3.195144
 197         V                 1.987113          2.907270
 198         V                 2.009822          3.306644
 199         V                 2.032724          3.230315
 200         V                 2.044088          3.258381
 201         V                 2.047754          3.569789
 202         V                 2.077847          3.572216
 203         V                 2.100050          3.297550
 204         V                 2.129587          3.360393
 205         V                 2.138422          3.432889
 206         V                 2.146050          3.384279
 207         V                 2.150928          3.422688
 208         V                 2.164441          3.402412
 209         V                 2.171322          3.494763
 210         V                 2.201971          3.249838
 211         V                 2.209323          3.533768
 212         V                 2.223742          3.312430
 213         V                 2.243474          3.259328
 214         V                 2.267626          3.409749
 215         V                 2.282919          3.436779
 216         V                 2.294485          3.305397
 217         V                 2.309715          3.589317
 218         V                 2.313720          3.554933
 219         V                 2.368546          3.641115
 220         V                 2.381159          3.667455
 221         V                 2.399832          3.512840
 222         V                 2.411876          3.602067
 223         V                 2.424236          3.642234
 224         V                 2.468304          3.791071
 225         V                 2.472246          3.798622
 226         V                 2.508590          3.757224
 227         V                 2.535081          4.258272
 228         V                 2.544094          4.411751
 229         V                 2.571919          4.058082
 230         V                 2.646535          3.658287
 231         V                 2.664589          3.654066
 232         V                 2.668248          3.738346
 233         V                 2.677152          3.929074
 234         V                 2.682709          3.829359
 235         V                 2.711934          3.844492
 236         V                 2.714991          3.742260
 237         V                 2.728327          3.790611
 238         V                 2.739151          3.801378
 239         V                 2.770093          3.938968
 240         V                 2.783021          4.042410
 241         V                 2.810297          4.474401
 242         V                 2.823760          4.159259
 243         V                 2.840792          4.064906
 244         V                 2.848088          4.477521
 245         V                 2.876177          4.587831
 246         V                 2.886463          4.663446
 247         V                 2.898927          4.051395
 248         V                 2.906331          4.197254
 249         V                 2.913765          4.101395
 250         V                 2.936161          4.186516
 251         V                 2.984674          4.336321
 252         V                 3.034916          4.612220
 253         V                 3.127678          5.573460
 254         V                 3.249328          4.952595
 255         V                 3.269143          5.047893
 256         V                 3.278915          5.039014
 257         V                 3.358507          5.244007
 258         V                 3.400433          6.225274
 259         V                 3.409614          5.952961
 260         V                 3.418801          5.297254
 261         V                 3.433922          5.574483
 262         V                 3.512494          6.543248
 263         V                 3.522520          5.410243
 264         V                 3.556486          9.411793
 265         V                 3.578105          5.833857
 266         V                 3.606896         10.018972
 267         V                 3.853002          9.765433
 268         V                 3.924928          9.954090
 269         V                 3.964451          9.818775
 270         V                 4.010377         10.344774
 271         V                 4.041598         10.258843
 272         V                 4.071241         10.003484
 273         V                 4.147460         10.586036
 274         V                 4.244961         10.748201
 275         V                 4.334348         10.271347
 276         V                 4.453051         10.572341
 277         V                 4.554671         10.321068
 278         V                 4.737886         10.576126
 Total kinetic energy from orbitals= 1.414652043779D+03

 Test job not archived.
 1\1\GINC-BATAGIN1\SP\RB3LYP\6-31G(d,p)\C4H12N1O7P2(1-)\ORISON\08-Feb-2
 021\0\\#t B3LYP/6-31G(d,p) scrf=(solvent=water) # Gfinput IOP(6/7=3) P
 op=hirshfeld Density Test # Units(Ang,Deg)\\ale-1p-2dp-opt-g09.log\\-1
 ,1\C,0,-3.42399,-1.08266,0.43204\C,0,-2.28545,-0.29034,-0.19446\H,0,-3
 .3668,-2.14776,0.20111\H,0,-3.46679,-0.95978,1.51567\C,0,-0.92959,-0.7
 8613,0.33085\H,0,-2.30609,-0.40779,-1.28332\H,0,-2.41432,0.77354,0.018
 47\H,0,-0.87426,-0.63401,1.414\H,0,-0.86396,-1.86337,0.14587\N,0,-4.76
 242,-0.60922,-0.09646\H,0,-5.54037,-1.12217,0.3271\H,0,-4.9084,0.38587
 ,0.09734\H,0,-4.8269,-0.73535,-1.11066\C,0,0.29961,-0.11832,-0.31289\O
 ,0,0.17564,-0.20847,-1.74717\H,0,1.09783,-0.37767,-2.03475\P,0,1.88823
 ,-1.06283,0.09774\P,0,0.49297,1.68565,0.18927\O,0,2.6849,-1.01217,-1.1
 9768\O,0,1.80035,2.21563,-0.35752\O,0,2.4832,-0.66965,1.42985\O,0,0.11
 661,1.87603,1.6478\O,0,-0.73545,2.41292,-0.70251\H,0,-1.32767,2.81357,
 -0.05048\O,0,1.38012,-2.65142,0.2312\H,0,1.21027,-2.84097,1.16485\\Ver
 sion=EM64L-G16RevA.03\State=1-A\HF=-1423.9879997\RMSD=3.713e-09\Dipole
 =-14.7304177,-3.5962333,0.0707617\Quadrupole=40.3401461,-21.9585481,-1
 8.381598,8.1884222,-0.0734275,-5.5457709\PG=C01 [X(C4H12N1O7P2)]\\@


 ... THIS SEEMS PLAINLY ABSURD; BUT WHOEVER WISHES TO BECOME A 
 PHILOSOPHER MUST LEARN NOT TO BE FRIGHTENED BY ABSURDITIES.

                          -- BERTRAND RUSSELL
 Job cpu time:       0 days  0 hours  9 minutes 43.7 seconds.
 Elapsed time:       0 days  0 hours  1 minutes 13.3 seconds.
 File lengths (MBytes):  RWF=    120 Int=      0 D2E=      0 Chk=      6 Scr=      1
 Normal termination of Gaussian 16 at Mon Feb  8 14:38:13 2021.
