 Entering Gaussian System, Link 0=g16
 Input=ale-1p-2dp_anion_scf_g09.com
 Output=ale-1p-2dp_anion_scf_g09.log
 Initial command:
 /opt/g16//g16/l1.exe "/home/orison/scrgauss/Gau-13489.inp" -scrdir="/home/orison/scrgauss/"
 Entering Link 1 = /opt/g16//g16/l1.exe PID=     13491.
  
 Copyright (c) 1988,1990,1992,1993,1995,1998,2003,2009,2016,
            Gaussian, Inc.  All Rights Reserved.
  
 This is part of the Gaussian(R) 16 program.  It is based on
 the Gaussian(R) 09 system (copyright 2009, Gaussian, Inc.),
 the Gaussian(R) 03 system (copyright 2003, Gaussian, Inc.),
 the Gaussian(R) 98 system (copyright 1998, Gaussian, Inc.),
 the Gaussian(R) 94 system (copyright 1995, Gaussian, Inc.),
 the Gaussian 92(TM) system (copyright 1992, Gaussian, Inc.),
 the Gaussian 90(TM) system (copyright 1990, Gaussian, Inc.),
 the Gaussian 88(TM) system (copyright 1988, Gaussian, Inc.),
 the Gaussian 86(TM) system (copyright 1986, Carnegie Mellon
 University), and the Gaussian 82(TM) system (copyright 1983,
 Carnegie Mellon University). Gaussian is a federally registered
 trademark of Gaussian, Inc.
  
 This software contains proprietary and confidential information,
 including trade secrets, belonging to Gaussian, Inc.
  
 This software is provided under written license and may be
 used, copied, transmitted, or stored only in accord with that
 written license.
  
 The following legend is applicable only to US Government
 contracts under FAR:
  
                    RESTRICTED RIGHTS LEGEND
  
 Use, reproduction and disclosure by the US Government is
 subject to restrictions as set forth in subparagraphs (a)
 and (c) of the Commercial Computer Software - Restricted
 Rights clause in FAR 52.227-19.
  
 Gaussian, Inc.
 340 Quinnipiac St., Bldg. 40, Wallingford CT 06492
  
  
 ---------------------------------------------------------------
 Warning -- This program may not be used in any manner that
 competes with the business of Gaussian, Inc. or will provide
 assistance to any competitor of Gaussian, Inc.  The licensee
 of this program is prohibited from giving any competitor of
 Gaussian, Inc. access to this program.  By using this program,
 the user acknowledges that Gaussian, Inc. is engaged in the
 business of creating and licensing software in the field of
 computational chemistry and represents and warrants to the
 licensee that it is not a competitor of Gaussian, Inc. and that
 it will not use this program in any manner prohibited above.
 ---------------------------------------------------------------
  

 Cite this work as:
 Gaussian 16, Revision A.03,
 M. J. Frisch, G. W. Trucks, H. B. Schlegel, G. E. Scuseria, 
 M. A. Robb, J. R. Cheeseman, G. Scalmani, V. Barone, 
 G. A. Petersson, H. Nakatsuji, X. Li, M. Caricato, A. V. Marenich, 
 J. Bloino, B. G. Janesko, R. Gomperts, B. Mennucci, H. P. Hratchian, 
 J. V. Ortiz, A. F. Izmaylov, J. L. Sonnenberg, D. Williams-Young, 
 F. Ding, F. Lipparini, F. Egidi, J. Goings, B. Peng, A. Petrone, 
 T. Henderson, D. Ranasinghe, V. G. Zakrzewski, J. Gao, N. Rega, 
 G. Zheng, W. Liang, M. Hada, M. Ehara, K. Toyota, R. Fukuda, 
 J. Hasegawa, M. Ishida, T. Nakajima, Y. Honda, O. Kitao, H. Nakai, 
 T. Vreven, K. Throssell, J. A. Montgomery, Jr., J. E. Peralta, 
 F. Ogliaro, M. J. Bearpark, J. J. Heyd, E. N. Brothers, K. N. Kudin, 
 V. N. Staroverov, T. A. Keith, R. Kobayashi, J. Normand, 
 K. Raghavachari, A. P. Rendell, J. C. Burant, S. S. Iyengar, 
 J. Tomasi, M. Cossi, J. M. Millam, M. Klene, C. Adamo, R. Cammi, 
 J. W. Ochterski, R. L. Martin, K. Morokuma, O. Farkas, 
 J. B. Foresman, and D. J. Fox, Gaussian, Inc., Wallingford CT, 2016.
 
 ******************************************
 Gaussian 16:  EM64L-G16RevA.03 25-Dec-2016
                 8-Feb-2021 
 ******************************************
 %nproc=8
 Will use up to    8 processors via shared memory.
 %Mem=4GB
 ----------------------------------------------------------------------
 #t B3LYP/6-31G(d,p) scrf=(solvent=water) # Gfinput IOP(6/7=3) Pop=hirs
 hfeld Density Test # Units(Ang,Deg)
 ----------------------------------------------------------------------
 ----------------------
 ale-1p-2dp-opt-g09.log
 ----------------------
 Symbolic Z-matrix:
 Charge = -2 Multiplicity = 2
 C                    -3.42399  -1.08266   0.43204 
 C                    -2.28545  -0.29034  -0.19446 
 H                    -3.3668   -2.14776   0.20111 
 H                    -3.46679  -0.95978   1.51567 
 C                    -0.92959  -0.78613   0.33085 
 H                    -2.30609  -0.40779  -1.28332 
 H                    -2.41432   0.77354   0.01847 
 H                    -0.87426  -0.63401   1.414 
 H                    -0.86396  -1.86337   0.14587 
 N                    -4.76242  -0.60922  -0.09646 
 H                    -5.54037  -1.12217   0.3271 
 H                    -4.9084    0.38587   0.09734 
 H                    -4.8269   -0.73535  -1.11066 
 C                     0.29961  -0.11832  -0.31289 
 O                     0.17564  -0.20847  -1.74717 
 H                     1.09783  -0.37767  -2.03475 
 P                     1.88823  -1.06283   0.09774 
 P                     0.49297   1.68565   0.18927 
 O                     2.6849   -1.01217  -1.19768 
 O                     1.80035   2.21563  -0.35752 
 O                     2.4832   -0.66965   1.42985 
 O                     0.11661   1.87603   1.6478 
 O                    -0.73545   2.41292  -0.70251 
 H                    -1.32767   2.81357  -0.05048 
 O                     1.38012  -2.65142   0.2312 
 H                     1.21027  -2.84097   1.16485 
 
                    Distance matrix (angstroms):
                    1          2          3          4          5
     1  C    0.000000
     2  C    1.522021   0.000000
     3  H    1.091347   2.185361   0.000000
     4  H    1.091414   2.183634   1.774644   0.000000
     5  C    2.514001   1.536266   2.794792   2.805590   0.000000
     6  H    2.155832   1.095371   2.521137   3.079978   2.154864
     7  H    2.153126   1.092606   3.078079   2.520655   2.175908
     8  H    2.768873   2.167189   3.158369   2.614895   1.095178
     9  H    2.691683   2.147296   2.519551   3.076939   1.094975
    10  N    1.514877   2.499334   2.098430   2.097740   3.860632
    11  H    2.119348   3.399775   2.406681   2.395580   4.623011
    12  H    2.114729   2.724385   2.967588   2.429130   4.154400
    13  H    2.113931   2.737960   2.418168   2.966122   4.155665
    14  C    3.917916   2.593483   4.222012   4.270533   1.539904
    15  O    4.297732   2.911112   4.483918   4.947513   2.423508
    16  H    5.198934   3.852386   5.297661   5.812064   3.142186
    17  P    5.322765   4.254612   5.366852   5.540522   2.840953
    18  P    4.802609   3.430948   5.439945   4.943413   2.855419
    19  O    6.322934   5.121706   6.314210   6.723712   3.930908
    20  O    6.228631   4.795856   6.786065   6.429217   4.115457
    21  O    6.005089   5.051958   6.157687   5.957678   3.587270
    22  O    4.771558   3.722496   5.515246   4.571655   3.148966
    23  O    4.553518   3.157250   5.342315   4.873976   3.367409
    24  H    4.450617   3.251512   5.369930   4.611597   3.641665
    25  O    5.057748   4.380900   4.773660   5.291885   2.970521
    26  H    5.010492   4.535802   4.728520   5.053399   3.081708
                    6          7          8          9         10
     6  H    0.000000
     7  H    1.761224   0.000000
     8  H    3.062164   2.510077   0.000000
     9  H    2.498207   3.061559   1.766235   0.000000
    10  N    2.735465   2.727418   4.171318   4.102390   0.000000
    11  H    3.682982   3.668945   4.815832   4.738252   1.023585
    12  H    3.050924   2.525261   4.364405   4.628059   1.024243
    13  H    2.547860   3.061409   4.691220   4.307690   1.024045
    14  C    2.795568   2.875870   2.150827   2.146988   5.090380
    15  O    2.532562   3.284771   3.358031   2.720857   5.222057
    16  H    3.486004   4.228025   3.981046   3.288013   6.176821
    17  P    4.464160   4.678726   3.089948   2.866658   6.668930
    18  P    3.792855   3.051795   2.958057   3.799827   5.741707
    19  O    5.028180   5.538034   4.430745   3.888968   7.539074
    20  O    4.960069   4.470395   4.290952   4.897978   7.149677
    21  O    5.510641   5.297216   3.357687   3.778499   7.404882
    22  O    4.435851   3.205590   2.708650   4.147339   5.746638
    23  O    3.280344   2.454788   3.712501   4.361527   5.071204
    24  H    3.585298   2.312420   3.773074   4.703972   4.849238
    25  O    4.573378   5.115993   3.248259   2.379958   6.481415
    26  H    4.927341   5.245619   3.045983   2.509273   6.499587
                   11         12         13         14         15
    11  H    0.000000
    12  H    1.651169   0.000000
    13  H    1.651007   1.650164   0.000000
    14  C    5.960090   5.248415   5.224774   0.000000
    15  O    6.149001   5.440857   5.070321   1.442447   0.000000
    16  H    7.085077   6.419003   6.007021   1.915521   0.980696
    17  P    7.432377   6.949310   6.830845   1.893259   2.658306
    18  P    6.656128   5.556319   5.987660   1.882514   2.727304
    19  O    8.366129   7.828780   7.517403   2.696559   2.691516
    20  O    8.092947   6.968662   7.293555   2.775164   3.232193
    21  O    8.111628   7.584554   7.739255   2.847661   3.953603
    22  O    6.537192   5.465824   6.234316   2.802718   3.984275
    23  O    6.053446   4.707675   5.178625   2.762305   2.965314
    24  H    5.777496   4.328649   5.095432   3.363462   3.777754
    25  O    7.088087   6.984879   6.633175   2.807157   3.366411
    26  H    7.016213   6.999300   6.786678   3.228907   4.059603
                   16         17         18         19         20
    16  H    0.000000
    17  P    2.375224   0.000000
    18  P    3.093446   3.083711   0.000000
    19  O    1.903173   1.521632   3.742515   0.000000
    20  O    3.167308   3.311085   1.512977   3.450651   0.000000
    21  O    3.742720   1.510992   3.323777   2.657427   3.462054
    22  O    4.427542   3.765398   1.518289   4.799434   2.640382
    23  O    3.594881   4.427746   1.683214   4.865720   2.566753
    24  H    4.472627   5.038895   2.155090   5.661543   3.199424
    25  O    3.222446   1.673202   4.427072   2.535999   4.920504
    26  H    4.039546   2.181773   4.685783   3.331755   5.313662
                   21         22         23         24         25
    21  O    0.000000
    22  O    3.482634   0.000000
    23  O    4.940537   2.556993   0.000000
    24  H    5.370934   2.418487   0.967671   0.000000
    25  O    2.565338   4.909279   5.567314   6.105537   0.000000
    26  H    2.530851   4.866151   5.905609   6.316011   0.967719
                   26
    26  H    0.000000
 Framework group  C1[X(C4H12NO7P2)]
 Deg. of freedom    72
                         Standard orientation:                         
 ---------------------------------------------------------------------
 Center     Atomic      Atomic             Coordinates (Angstroms)
 Number     Number       Type             X           Y           Z
 ---------------------------------------------------------------------
      1          6           0        3.423991   -1.082659   -0.432039
      2          6           0        2.285451   -0.290339    0.194461
      3          1           0        3.366802   -2.147759   -0.201109
      4          1           0        3.466791   -0.959779   -1.515669
      5          6           0        0.929591   -0.786130   -0.330849
      6          1           0        2.306091   -0.407789    1.283321
      7          1           0        2.414320    0.773541   -0.018469
      8          1           0        0.874261   -0.634010   -1.413999
      9          1           0        0.863962   -1.863370   -0.145869
     10          7           0        4.762421   -0.609218    0.096461
     11          1           0        5.540371   -1.122167   -0.327099
     12          1           0        4.908400    0.385872   -0.097339
     13          1           0        4.826901   -0.735348    1.110661
     14          6           0       -0.299610   -0.118321    0.312891
     15          8           0       -0.175640   -0.208471    1.747171
     16          1           0       -1.097829   -0.377672    2.034751
     17         15           0       -1.888229   -1.062832   -0.097739
     18         15           0       -0.492971    1.685649   -0.189269
     19          8           0       -2.684899   -1.012173    1.197681
     20          8           0       -1.800351    2.215628    0.357521
     21          8           0       -2.483199   -0.669653   -1.429849
     22          8           0       -0.116611    1.876029   -1.647799
     23          8           0        0.735449    2.412919    0.702511
     24          1           0        1.327668    2.813570    0.050481
     25          8           0       -1.380118   -2.651422   -0.231199
     26          1           0       -1.210268   -2.840972   -1.164849
 ---------------------------------------------------------------------
 Rotational constants (GHZ):           0.7002410           0.4041208           0.3127936
 AO basis set in the form of general basis input (Overlap normalization):
      1 0
 S   6 1.00       0.000000000000
      0.3047524880D+04  0.1834737132D-02
      0.4573695180D+03  0.1403732281D-01
      0.1039486850D+03  0.6884262226D-01
      0.2921015530D+02  0.2321844432D+00
      0.9286662960D+01  0.4679413484D+00
      0.3163926960D+01  0.3623119853D+00
 SP   3 1.00       0.000000000000
      0.7868272350D+01 -0.1193324198D+00  0.6899906659D-01
      0.1881288540D+01 -0.1608541517D+00  0.3164239610D+00
      0.5442492580D+00  0.1143456438D+01  0.7443082909D+00
 SP   1 1.00       0.000000000000
      0.1687144782D+00  0.1000000000D+01  0.1000000000D+01
 D   1 1.00       0.000000000000
      0.8000000000D+00  0.1000000000D+01
 ****
      2 0
 S   6 1.00       0.000000000000
      0.3047524880D+04  0.1834737132D-02
      0.4573695180D+03  0.1403732281D-01
      0.1039486850D+03  0.6884262226D-01
      0.2921015530D+02  0.2321844432D+00
      0.9286662960D+01  0.4679413484D+00
      0.3163926960D+01  0.3623119853D+00
 SP   3 1.00       0.000000000000
      0.7868272350D+01 -0.1193324198D+00  0.6899906659D-01
      0.1881288540D+01 -0.1608541517D+00  0.3164239610D+00
      0.5442492580D+00  0.1143456438D+01  0.7443082909D+00
 SP   1 1.00       0.000000000000
      0.1687144782D+00  0.1000000000D+01  0.1000000000D+01
 D   1 1.00       0.000000000000
      0.8000000000D+00  0.1000000000D+01
 ****
      3 0
 S   3 1.00       0.000000000000
      0.1873113696D+02  0.3349460434D-01
      0.2825394365D+01  0.2347269535D+00
      0.6401216923D+00  0.8137573261D+00
 S   1 1.00       0.000000000000
      0.1612777588D+00  0.1000000000D+01
 P   1 1.00       0.000000000000
      0.1100000000D+01  0.1000000000D+01
 ****
      4 0
 S   3 1.00       0.000000000000
      0.1873113696D+02  0.3349460434D-01
      0.2825394365D+01  0.2347269535D+00
      0.6401216923D+00  0.8137573261D+00
 S   1 1.00       0.000000000000
      0.1612777588D+00  0.1000000000D+01
 P   1 1.00       0.000000000000
      0.1100000000D+01  0.1000000000D+01
 ****
      5 0
 S   6 1.00       0.000000000000
      0.3047524880D+04  0.1834737132D-02
      0.4573695180D+03  0.1403732281D-01
      0.1039486850D+03  0.6884262226D-01
      0.2921015530D+02  0.2321844432D+00
      0.9286662960D+01  0.4679413484D+00
      0.3163926960D+01  0.3623119853D+00
 SP   3 1.00       0.000000000000
      0.7868272350D+01 -0.1193324198D+00  0.6899906659D-01
      0.1881288540D+01 -0.1608541517D+00  0.3164239610D+00
      0.5442492580D+00  0.1143456438D+01  0.7443082909D+00
 SP   1 1.00       0.000000000000
      0.1687144782D+00  0.1000000000D+01  0.1000000000D+01
 D   1 1.00       0.000000000000
      0.8000000000D+00  0.1000000000D+01
 ****
      6 0
 S   3 1.00       0.000000000000
      0.1873113696D+02  0.3349460434D-01
      0.2825394365D+01  0.2347269535D+00
      0.6401216923D+00  0.8137573261D+00
 S   1 1.00       0.000000000000
      0.1612777588D+00  0.1000000000D+01
 P   1 1.00       0.000000000000
      0.1100000000D+01  0.1000000000D+01
 ****
      7 0
 S   3 1.00       0.000000000000
      0.1873113696D+02  0.3349460434D-01
      0.2825394365D+01  0.2347269535D+00
      0.6401216923D+00  0.8137573261D+00
 S   1 1.00       0.000000000000
      0.1612777588D+00  0.1000000000D+01
 P   1 1.00       0.000000000000
      0.1100000000D+01  0.1000000000D+01
 ****
      8 0
 S   3 1.00       0.000000000000
      0.1873113696D+02  0.3349460434D-01
      0.2825394365D+01  0.2347269535D+00
      0.6401216923D+00  0.8137573261D+00
 S   1 1.00       0.000000000000
      0.1612777588D+00  0.1000000000D+01
 P   1 1.00       0.000000000000
      0.1100000000D+01  0.1000000000D+01
 ****
      9 0
 S   3 1.00       0.000000000000
      0.1873113696D+02  0.3349460434D-01
      0.2825394365D+01  0.2347269535D+00
      0.6401216923D+00  0.8137573261D+00
 S   1 1.00       0.000000000000
      0.1612777588D+00  0.1000000000D+01
 P   1 1.00       0.000000000000
      0.1100000000D+01  0.1000000000D+01
 ****
     10 0
 S   6 1.00       0.000000000000
      0.4173511460D+04  0.1834772160D-02
      0.6274579110D+03  0.1399462700D-01
      0.1429020930D+03  0.6858655181D-01
      0.4023432930D+02  0.2322408730D+00
      0.1282021290D+02  0.4690699481D+00
      0.4390437010D+01  0.3604551991D+00
 SP   3 1.00       0.000000000000
      0.1162636186D+02 -0.1149611817D+00  0.6757974388D-01
      0.2716279807D+01 -0.1691174786D+00  0.3239072959D+00
      0.7722183966D+00  0.1145851947D+01  0.7408951398D+00
 SP   1 1.00       0.000000000000
      0.2120314975D+00  0.1000000000D+01  0.1000000000D+01
 D   1 1.00       0.000000000000
      0.8000000000D+00  0.1000000000D+01
 ****
     11 0
 S   3 1.00       0.000000000000
      0.1873113696D+02  0.3349460434D-01
      0.2825394365D+01  0.2347269535D+00
      0.6401216923D+00  0.8137573261D+00
 S   1 1.00       0.000000000000
      0.1612777588D+00  0.1000000000D+01
 P   1 1.00       0.000000000000
      0.1100000000D+01  0.1000000000D+01
 ****
     12 0
 S   3 1.00       0.000000000000
      0.1873113696D+02  0.3349460434D-01
      0.2825394365D+01  0.2347269535D+00
      0.6401216923D+00  0.8137573261D+00
 S   1 1.00       0.000000000000
      0.1612777588D+00  0.1000000000D+01
 P   1 1.00       0.000000000000
      0.1100000000D+01  0.1000000000D+01
 ****
     13 0
 S   3 1.00       0.000000000000
      0.1873113696D+02  0.3349460434D-01
      0.2825394365D+01  0.2347269535D+00
      0.6401216923D+00  0.8137573261D+00
 S   1 1.00       0.000000000000
      0.1612777588D+00  0.1000000000D+01
 P   1 1.00       0.000000000000
      0.1100000000D+01  0.1000000000D+01
 ****
     14 0
 S   6 1.00       0.000000000000
      0.3047524880D+04  0.1834737132D-02
      0.4573695180D+03  0.1403732281D-01
      0.1039486850D+03  0.6884262226D-01
      0.2921015530D+02  0.2321844432D+00
      0.9286662960D+01  0.4679413484D+00
      0.3163926960D+01  0.3623119853D+00
 SP   3 1.00       0.000000000000
      0.7868272350D+01 -0.1193324198D+00  0.6899906659D-01
      0.1881288540D+01 -0.1608541517D+00  0.3164239610D+00
      0.5442492580D+00  0.1143456438D+01  0.7443082909D+00
 SP   1 1.00       0.000000000000
      0.1687144782D+00  0.1000000000D+01  0.1000000000D+01
 D   1 1.00       0.000000000000
      0.8000000000D+00  0.1000000000D+01
 ****
     15 0
 S   6 1.00       0.000000000000
      0.5484671660D+04  0.1831074430D-02
      0.8252349460D+03  0.1395017220D-01
      0.1880469580D+03  0.6844507810D-01
      0.5296450000D+02  0.2327143360D+00
      0.1689757040D+02  0.4701928980D+00
      0.5799635340D+01  0.3585208530D+00
 SP   3 1.00       0.000000000000
      0.1553961625D+02 -0.1107775495D+00  0.7087426823D-01
      0.3599933586D+01 -0.1480262627D+00  0.3397528391D+00
      0.1013761750D+01  0.1130767015D+01  0.7271585773D+00
 SP   1 1.00       0.000000000000
      0.2700058226D+00  0.1000000000D+01  0.1000000000D+01
 D   1 1.00       0.000000000000
      0.8000000000D+00  0.1000000000D+01
 ****
     16 0
 S   3 1.00       0.000000000000
      0.1873113696D+02  0.3349460434D-01
      0.2825394365D+01  0.2347269535D+00
      0.6401216923D+00  0.8137573261D+00
 S   1 1.00       0.000000000000
      0.1612777588D+00  0.1000000000D+01
 P   1 1.00       0.000000000000
      0.1100000000D+01  0.1000000000D+01
 ****
     17 0
 S   6 1.00       0.000000000000
      0.1941330000D+05  0.1851598923D-02
      0.2909420000D+04  0.1420619174D-01
      0.6613640000D+03  0.6999945928D-01
      0.1857590000D+03  0.2400788603D+00
      0.5919430000D+02  0.4847617180D+00
      0.2003100000D+02  0.3351998050D+00
 SP   6 1.00       0.000000000000
      0.3394780000D+03 -0.2782170105D-02  0.4564616191D-02
      0.8101010000D+02 -0.3604990135D-01  0.3369357188D-01
      0.2587800000D+02 -0.1166310044D+00  0.1397548834D+00
      0.9452210000D+01  0.9683280364D-01  0.3393617168D+00
      0.3665660000D+01  0.6144180231D+00  0.4509206237D+00
      0.1467460000D+01  0.4037980152D+00  0.2385858009D+00
 SP   3 1.00       0.000000000000
      0.2156230000D+01 -0.2529241139D+00 -0.1776531273D-01
      0.7489970000D+00  0.3285184468D-01  0.2740581964D+00
      0.2831450000D+00  0.1081254762D+01  0.7854215630D+00
 SP   1 1.00       0.000000000000
      0.9983170000D-01  0.1000000000D+01  0.1000000000D+01
 D   1 1.00       0.000000000000
      0.5500000000D+00  0.1000000000D+01
 ****
     18 0
 S   6 1.00       0.000000000000
      0.1941330000D+05  0.1851598923D-02
      0.2909420000D+04  0.1420619174D-01
      0.6613640000D+03  0.6999945928D-01
      0.1857590000D+03  0.2400788603D+00
      0.5919430000D+02  0.4847617180D+00
      0.2003100000D+02  0.3351998050D+00
 SP   6 1.00       0.000000000000
      0.3394780000D+03 -0.2782170105D-02  0.4564616191D-02
      0.8101010000D+02 -0.3604990135D-01  0.3369357188D-01
      0.2587800000D+02 -0.1166310044D+00  0.1397548834D+00
      0.9452210000D+01  0.9683280364D-01  0.3393617168D+00
      0.3665660000D+01  0.6144180231D+00  0.4509206237D+00
      0.1467460000D+01  0.4037980152D+00  0.2385858009D+00
 SP   3 1.00       0.000000000000
      0.2156230000D+01 -0.2529241139D+00 -0.1776531273D-01
      0.7489970000D+00  0.3285184468D-01  0.2740581964D+00
      0.2831450000D+00  0.1081254762D+01  0.7854215630D+00
 SP   1 1.00       0.000000000000
      0.9983170000D-01  0.1000000000D+01  0.1000000000D+01
 D   1 1.00       0.000000000000
      0.5500000000D+00  0.1000000000D+01
 ****
     19 0
 S   6 1.00       0.000000000000
      0.5484671660D+04  0.1831074430D-02
      0.8252349460D+03  0.1395017220D-01
      0.1880469580D+03  0.6844507810D-01
      0.5296450000D+02  0.2327143360D+00
      0.1689757040D+02  0.4701928980D+00
      0.5799635340D+01  0.3585208530D+00
 SP   3 1.00       0.000000000000
      0.1553961625D+02 -0.1107775495D+00  0.7087426823D-01
      0.3599933586D+01 -0.1480262627D+00  0.3397528391D+00
      0.1013761750D+01  0.1130767015D+01  0.7271585773D+00
 SP   1 1.00       0.000000000000
      0.2700058226D+00  0.1000000000D+01  0.1000000000D+01
 D   1 1.00       0.000000000000
      0.8000000000D+00  0.1000000000D+01
 ****
     20 0
 S   6 1.00       0.000000000000
      0.5484671660D+04  0.1831074430D-02
      0.8252349460D+03  0.1395017220D-01
      0.1880469580D+03  0.6844507810D-01
      0.5296450000D+02  0.2327143360D+00
      0.1689757040D+02  0.4701928980D+00
      0.5799635340D+01  0.3585208530D+00
 SP   3 1.00       0.000000000000
      0.1553961625D+02 -0.1107775495D+00  0.7087426823D-01
      0.3599933586D+01 -0.1480262627D+00  0.3397528391D+00
      0.1013761750D+01  0.1130767015D+01  0.7271585773D+00
 SP   1 1.00       0.000000000000
      0.2700058226D+00  0.1000000000D+01  0.1000000000D+01
 D   1 1.00       0.000000000000
      0.8000000000D+00  0.1000000000D+01
 ****
     21 0
 S   6 1.00       0.000000000000
      0.5484671660D+04  0.1831074430D-02
      0.8252349460D+03  0.1395017220D-01
      0.1880469580D+03  0.6844507810D-01
      0.5296450000D+02  0.2327143360D+00
      0.1689757040D+02  0.4701928980D+00
      0.5799635340D+01  0.3585208530D+00
 SP   3 1.00       0.000000000000
      0.1553961625D+02 -0.1107775495D+00  0.7087426823D-01
      0.3599933586D+01 -0.1480262627D+00  0.3397528391D+00
      0.1013761750D+01  0.1130767015D+01  0.7271585773D+00
 SP   1 1.00       0.000000000000
      0.2700058226D+00  0.1000000000D+01  0.1000000000D+01
 D   1 1.00       0.000000000000
      0.8000000000D+00  0.1000000000D+01
 ****
     22 0
 S   6 1.00       0.000000000000
      0.5484671660D+04  0.1831074430D-02
      0.8252349460D+03  0.1395017220D-01
      0.1880469580D+03  0.6844507810D-01
      0.5296450000D+02  0.2327143360D+00
      0.1689757040D+02  0.4701928980D+00
      0.5799635340D+01  0.3585208530D+00
 SP   3 1.00       0.000000000000
      0.1553961625D+02 -0.1107775495D+00  0.7087426823D-01
      0.3599933586D+01 -0.1480262627D+00  0.3397528391D+00
      0.1013761750D+01  0.1130767015D+01  0.7271585773D+00
 SP   1 1.00       0.000000000000
      0.2700058226D+00  0.1000000000D+01  0.1000000000D+01
 D   1 1.00       0.000000000000
      0.8000000000D+00  0.1000000000D+01
 ****
     23 0
 S   6 1.00       0.000000000000
      0.5484671660D+04  0.1831074430D-02
      0.8252349460D+03  0.1395017220D-01
      0.1880469580D+03  0.6844507810D-01
      0.5296450000D+02  0.2327143360D+00
      0.1689757040D+02  0.4701928980D+00
      0.5799635340D+01  0.3585208530D+00
 SP   3 1.00       0.000000000000
      0.1553961625D+02 -0.1107775495D+00  0.7087426823D-01
      0.3599933586D+01 -0.1480262627D+00  0.3397528391D+00
      0.1013761750D+01  0.1130767015D+01  0.7271585773D+00
 SP   1 1.00       0.000000000000
      0.2700058226D+00  0.1000000000D+01  0.1000000000D+01
 D   1 1.00       0.000000000000
      0.8000000000D+00  0.1000000000D+01
 ****
     24 0
 S   3 1.00       0.000000000000
      0.1873113696D+02  0.3349460434D-01
      0.2825394365D+01  0.2347269535D+00
      0.6401216923D+00  0.8137573261D+00
 S   1 1.00       0.000000000000
      0.1612777588D+00  0.1000000000D+01
 P   1 1.00       0.000000000000
      0.1100000000D+01  0.1000000000D+01
 ****
     25 0
 S   6 1.00       0.000000000000
      0.5484671660D+04  0.1831074430D-02
      0.8252349460D+03  0.1395017220D-01
      0.1880469580D+03  0.6844507810D-01
      0.5296450000D+02  0.2327143360D+00
      0.1689757040D+02  0.4701928980D+00
      0.5799635340D+01  0.3585208530D+00
 SP   3 1.00       0.000000000000
      0.1553961625D+02 -0.1107775495D+00  0.7087426823D-01
      0.3599933586D+01 -0.1480262627D+00  0.3397528391D+00
      0.1013761750D+01  0.1130767015D+01  0.7271585773D+00
 SP   1 1.00       0.000000000000
      0.2700058226D+00  0.1000000000D+01  0.1000000000D+01
 D   1 1.00       0.000000000000
      0.8000000000D+00  0.1000000000D+01
 ****
     26 0
 S   3 1.00       0.000000000000
      0.1873113696D+02  0.3349460434D-01
      0.2825394365D+01  0.2347269535D+00
      0.6401216923D+00  0.8137573261D+00
 S   1 1.00       0.000000000000
      0.1612777588D+00  0.1000000000D+01
 P   1 1.00       0.000000000000
      0.1100000000D+01  0.1000000000D+01
 ****

   278 basis functions,   524 primitive gaussians,   278 cartesian basis functions
    66 alpha electrons       65 beta electrons
       nuclear repulsion energy      1348.5244384188 Hartrees.
 NAtoms=   26 NActive=   26 NUniq=   26 SFac= 1.00D+00 NAtFMM=   60 NAOKFM=F Big=F
 ------------------------------------------------------------------------------
 Polarizable Continuum Model (PCM)
 =================================
 Model                : PCM.
 Atomic radii         : UFF (Universal Force Field).
 Polarization charges : Total charges.
 Charge compensation  : None.
 Solution method      : On-the-fly selection.
 Cavity type          : Scaled VdW (van der Waals Surface) (Alpha=1.100).
 Cavity algorithm     : GePol (No added spheres)
                        Default sphere list used, NSphG=   26.
                        Lebedev-Laikov grids with approx.  5.0 points / Ang**2.
                        Smoothing algorithm: York/Karplus (Gamma=1.0000).
                        Polarization charges: spherical gaussians, with
                                              point-specific exponents (IZeta= 3).
                        Self-potential: point-specific (ISelfS= 7).
                        Self-field    : sphere-specific E.n sum rule (ISelfD= 2).
 Solvent              : Water, Eps=  78.355300 Eps(inf)=   1.777849
 ------------------------------------------------------------------------------
 ExpMin= 9.98D-02 ExpMax= 1.94D+04 ExpMxC= 2.91D+03 IAcc=3 IRadAn=         5 AccDes= 0.00D+00
 Harris functional with IExCor=  402 and IRadAn=       5 diagonalized for initial guess.
 HarFok:  IExCor=  402 AccDes= 0.00D+00 IRadAn=         5 IDoV= 1 UseB2=F ITyADJ=14
 ICtDFT=  3500011 ScaDFX=  1.000000  1.000000  1.000000  1.000000
 FoFCou: FMM=F IPFlag=           0 FMFlag=      100000 FMFlg1=           0
         NFxFlg=           0 DoJE=T BraDBF=F KetDBF=T FulRan=T
         wScrn=  0.000000 ICntrl=       500 IOpCl=  0 I1Cent=   200000004 NGrid=           0
         NMat0=    1 NMatS0=      1 NMatT0=    0 NMatD0=    1 NMtDS0=    0 NMtDT0=    0
 Petite list used in FoFCou.
 Initial guess <Sx>= 0.0000 <Sy>= 0.0000 <Sz>= 0.5000 <S**2>= 0.7500 S= 0.5000
 Inv3:  Mode=1 IEnd=    13242603.
 Iteration    1 A*A^-1 deviation from unit magnitude is 9.33D-15 for    276.
 Iteration    1 A*A^-1 deviation from orthogonality  is 6.66D-15 for   2012    832.
 Iteration    1 A^-1*A deviation from unit magnitude is 8.88D-15 for    276.
 Iteration    1 A^-1*A deviation from orthogonality  is 3.52D-15 for   1983    427.
 Error on total polarization charges =  0.01419
 SCF Done:  E(UB3LYP) =  -1423.97890745     A.U. after   19 cycles
            NFock= 19  Conv=0.61D-08     -V/T= 2.0061
 <Sx>= 0.0000 <Sy>= 0.0000 <Sz>= 0.5000 <S**2>= 0.7509 S= 0.5005
 <L.S>= 0.000000000000E+00
 Annihilation of the first spin contaminant:
 S**2 before annihilation     0.7509,   after     0.7500

 **********************************************************************

            Population analysis using the SCF density.

 **********************************************************************

 Orbital symmetries:
 Alpha Orbitals:
       Occupied  (A) (A) (A) (A) (A) (A) (A) (A) (A) (A) (A) (A)
                 (A) (A) (A) (A) (A) (A) (A) (A) (A) (A) (A) (A)
                 (A) (A) (A) (A) (A) (A) (A) (A) (A) (A) (A) (A)
                 (A) (A) (A) (A) (A) (A) (A) (A) (A) (A) (A) (A)
                 (A) (A) (A) (A) (A) (A) (A) (A) (A) (A) (A) (A)
                 (A) (A) (A) (A) (A) (A)
       Virtual   (A) (A) (A) (A) (A) (A) (A) (A) (A) (A) (A) (A)
                 (A) (A) (A) (A) (A) (A) (A) (A) (A) (A) (A) (A)
                 (A) (A) (A) (A) (A) (A) (A) (A) (A) (A) (A) (A)
                 (A) (A) (A) (A) (A) (A) (A) (A) (A) (A) (A) (A)
                 (A) (A) (A) (A) (A) (A) (A) (A) (A) (A) (A) (A)
                 (A) (A) (A) (A) (A) (A) (A) (A) (A) (A) (A) (A)
                 (A) (A) (A) (A) (A) (A) (A) (A) (A) (A) (A) (A)
                 (A) (A) (A) (A) (A) (A) (A) (A) (A) (A) (A) (A)
                 (A) (A) (A) (A) (A) (A) (A) (A) (A) (A) (A) (A)
                 (A) (A) (A) (A) (A) (A) (A) (A) (A) (A) (A) (A)
                 (A) (A) (A) (A) (A) (A) (A) (A) (A) (A) (A) (A)
                 (A) (A) (A) (A) (A) (A) (A) (A) (A) (A) (A) (A)
                 (A) (A) (A) (A) (A) (A) (A) (A) (A) (A) (A) (A)
                 (A) (A) (A) (A) (A) (A) (A) (A) (A) (A) (A) (A)
                 (A) (A) (A) (A) (A) (A) (A) (A) (A) (A) (A) (A)
                 (A) (A) (A) (A) (A) (A) (A) (A) (A) (A) (A) (A)
                 (A) (A) (A) (A) (A) (A) (A) (A) (A) (A) (A) (A)
                 (A) (A) (A) (A) (A) (A) (A) (A)
 Beta  Orbitals:
       Occupied  (A) (A) (A) (A) (A) (A) (A) (A) (A) (A) (A) (A)
                 (A) (A) (A) (A) (A) (A) (A) (A) (A) (A) (A) (A)
                 (A) (A) (A) (A) (A) (A) (A) (A) (A) (A) (A) (A)
                 (A) (A) (A) (A) (A) (A) (A) (A) (A) (A) (A) (A)
                 (A) (A) (A) (A) (A) (A) (A) (A) (A) (A) (A) (A)
                 (A) (A) (A) (A) (A)
       Virtual   (A) (A) (A) (A) (A) (A) (A) (A) (A) (A) (A) (A)
                 (A) (A) (A) (A) (A) (A) (A) (A) (A) (A) (A) (A)
                 (A) (A) (A) (A) (A) (A) (A) (A) (A) (A) (A) (A)
                 (A) (A) (A) (A) (A) (A) (A) (A) (A) (A) (A) (A)
                 (A) (A) (A) (A) (A) (A) (A) (A) (A) (A) (A) (A)
                 (A) (A) (A) (A) (A) (A) (A) (A) (A) (A) (A) (A)
                 (A) (A) (A) (A) (A) (A) (A) (A) (A) (A) (A) (A)
                 (A) (A) (A) (A) (A) (A) (A) (A) (A) (A) (A) (A)
                 (A) (A) (A) (A) (A) (A) (A) (A) (A) (A) (A) (A)
                 (A) (A) (A) (A) (A) (A) (A) (A) (A) (A) (A) (A)
                 (A) (A) (A) (A) (A) (A) (A) (A) (A) (A) (A) (A)
                 (A) (A) (A) (A) (A) (A) (A) (A) (A) (A) (A) (A)
                 (A) (A) (A) (A) (A) (A) (A) (A) (A) (A) (A) (A)
                 (A) (A) (A) (A) (A) (A) (A) (A) (A) (A) (A) (A)
                 (A) (A) (A) (A) (A) (A) (A) (A) (A) (A) (A) (A)
                 (A) (A) (A) (A) (A) (A) (A) (A) (A) (A) (A) (A)
                 (A) (A) (A) (A) (A) (A) (A) (A) (A) (A) (A) (A)
                 (A) (A) (A) (A) (A) (A) (A) (A) (A)
 The electronic state is 2-A.
 Alpha  occ. eigenvalues --  -77.14904 -77.13825 -19.13431 -19.12216 -19.11720
 Alpha  occ. eigenvalues --  -19.06391 -19.06161 -19.05083 -19.04907 -14.38218
 Alpha  occ. eigenvalues --  -10.21817 -10.20618 -10.16998 -10.16529  -6.59782
 Alpha  occ. eigenvalues --   -6.58666  -4.76277  -4.75988  -4.75966  -4.75178
 Alpha  occ. eigenvalues --   -4.74875  -4.74839  -1.00819  -0.99501  -0.98244
 Alpha  occ. eigenvalues --   -0.95213  -0.92398  -0.91251  -0.88754  -0.87423
 Alpha  occ. eigenvalues --   -0.77771  -0.70247  -0.62411  -0.57642  -0.54676
 Alpha  occ. eigenvalues --   -0.53641  -0.51956  -0.51091  -0.48753  -0.46143
 Alpha  occ. eigenvalues --   -0.45230  -0.42640  -0.41372  -0.40303  -0.39565
 Alpha  occ. eigenvalues --   -0.37536  -0.37234  -0.36258  -0.35337  -0.34609
 Alpha  occ. eigenvalues --   -0.33472  -0.33213  -0.32734  -0.32071  -0.29397
 Alpha  occ. eigenvalues --   -0.28553  -0.27359  -0.27210  -0.25532  -0.24344
 Alpha  occ. eigenvalues --   -0.23806  -0.23337  -0.22840  -0.21819  -0.20458
 Alpha  occ. eigenvalues --   -0.00961
 Alpha virt. eigenvalues --    0.08346   0.09460   0.10376   0.11078   0.11865
 Alpha virt. eigenvalues --    0.12282   0.12973   0.15600   0.16507   0.16911
 Alpha virt. eigenvalues --    0.17478   0.18231   0.18929   0.19513   0.20841
 Alpha virt. eigenvalues --    0.21405   0.22063   0.22663   0.24615   0.25834
 Alpha virt. eigenvalues --    0.26114   0.28445   0.29963   0.31368   0.35986
 Alpha virt. eigenvalues --    0.37367   0.41590   0.42151   0.44060   0.44629
 Alpha virt. eigenvalues --    0.48246   0.50518   0.52200   0.55174   0.55557
 Alpha virt. eigenvalues --    0.57750   0.60516   0.62949   0.63726   0.64372
 Alpha virt. eigenvalues --    0.67691   0.69267   0.70336   0.71967   0.75525
 Alpha virt. eigenvalues --    0.77769   0.79022   0.79858   0.80137   0.80928
 Alpha virt. eigenvalues --    0.82133   0.82549   0.83250   0.84662   0.85255
 Alpha virt. eigenvalues --    0.85653   0.87352   0.88745   0.89682   0.90909
 Alpha virt. eigenvalues --    0.91781   0.92350   0.93236   0.94057   0.95684
 Alpha virt. eigenvalues --    0.96076   0.98154   0.99669   1.00586   1.01992
 Alpha virt. eigenvalues --    1.03706   1.04523   1.05869   1.07852   1.08349
 Alpha virt. eigenvalues --    1.09169   1.09592   1.10472   1.11211   1.12775
 Alpha virt. eigenvalues --    1.15158   1.17352   1.17908   1.19838   1.22287
 Alpha virt. eigenvalues --    1.23195   1.23874   1.25204   1.27091   1.28233
 Alpha virt. eigenvalues --    1.31351   1.34210   1.35043   1.38280   1.41662
 Alpha virt. eigenvalues --    1.44751   1.47214   1.48303   1.52642   1.55452
 Alpha virt. eigenvalues --    1.56899   1.57076   1.59252   1.61207   1.63277
 Alpha virt. eigenvalues --    1.66914   1.67531   1.68807   1.69554   1.70121
 Alpha virt. eigenvalues --    1.72829   1.74443   1.79561   1.80379   1.83607
 Alpha virt. eigenvalues --    1.84825   1.85899   1.86052   1.86560   1.88110
 Alpha virt. eigenvalues --    1.89281   1.90136   1.90571   1.91240   1.92694
 Alpha virt. eigenvalues --    1.93114   1.94351   1.95412   1.97205   1.98233
 Alpha virt. eigenvalues --    2.01621   2.04392   2.05291   2.05566   2.06778
 Alpha virt. eigenvalues --    2.08717   2.10999   2.13885   2.14944   2.15852
 Alpha virt. eigenvalues --    2.17687   2.19873   2.21396   2.21921   2.23808
 Alpha virt. eigenvalues --    2.24475   2.26383   2.28068   2.29843   2.31497
 Alpha virt. eigenvalues --    2.32579   2.34454   2.37782   2.38967   2.41087
 Alpha virt. eigenvalues --    2.43437   2.44190   2.47706   2.49926   2.53767
 Alpha virt. eigenvalues --    2.54315   2.55114   2.58827   2.65460   2.67063
 Alpha virt. eigenvalues --    2.68403   2.69524   2.70450   2.72549   2.72945
 Alpha virt. eigenvalues --    2.73883   2.76626   2.79970   2.80479   2.81798
 Alpha virt. eigenvalues --    2.84137   2.85730   2.86691   2.88430   2.89463
 Alpha virt. eigenvalues --    2.91715   2.92283   2.96878   2.98657   2.99380
 Alpha virt. eigenvalues --    3.04204   3.18458   3.27743   3.30376   3.31412
 Alpha virt. eigenvalues --    3.38937   3.40798   3.42185   3.44884   3.46365
 Alpha virt. eigenvalues --    3.51665   3.55232   3.56416   3.59388   3.61074
 Alpha virt. eigenvalues --    3.85645   3.92908   3.96834   4.01504   4.05179
 Alpha virt. eigenvalues --    4.11038   4.15729   4.24933   4.35883   4.46900
 Alpha virt. eigenvalues --    4.57819   4.75563
  Beta  occ. eigenvalues --  -77.14904 -77.13825 -19.13431 -19.12216 -19.11719
  Beta  occ. eigenvalues --  -19.06390 -19.06160 -19.05083 -19.04907 -14.37296
  Beta  occ. eigenvalues --  -10.21733 -10.20618 -10.16967 -10.16492  -6.59781
  Beta  occ. eigenvalues --   -6.58666  -4.76277  -4.75988  -4.75965  -4.75178
  Beta  occ. eigenvalues --   -4.74875  -4.74839  -1.00818  -0.99500  -0.98243
  Beta  occ. eigenvalues --   -0.94042  -0.92397  -0.91250  -0.88753  -0.87423
  Beta  occ. eigenvalues --   -0.77520  -0.69934  -0.62120  -0.57496  -0.54653
  Beta  occ. eigenvalues --   -0.52820  -0.51295  -0.50908  -0.48676  -0.45577
  Beta  occ. eigenvalues --   -0.44987  -0.42562  -0.41351  -0.40242  -0.39417
  Beta  occ. eigenvalues --   -0.37473  -0.37171  -0.36151  -0.35307  -0.34524
  Beta  occ. eigenvalues --   -0.33450  -0.33168  -0.32692  -0.32046  -0.29393
  Beta  occ. eigenvalues --   -0.28542  -0.27356  -0.27209  -0.25528  -0.24337
  Beta  occ. eigenvalues --   -0.23802  -0.23335  -0.22838  -0.21819  -0.20455
  Beta virt. eigenvalues --    0.06369   0.08378   0.09903   0.11656   0.11989
  Beta virt. eigenvalues --    0.12792   0.13106   0.13960   0.16383   0.16966
  Beta virt. eigenvalues --    0.17167   0.17817   0.18461   0.19065   0.19741
  Beta virt. eigenvalues --    0.20956   0.21468   0.22406   0.22682   0.24689
  Beta virt. eigenvalues --    0.25929   0.26251   0.28526   0.29981   0.31506
  Beta virt. eigenvalues --    0.35992   0.37374   0.41614   0.42163   0.44072
  Beta virt. eigenvalues --    0.44685   0.48292   0.50550   0.52326   0.55381
  Beta virt. eigenvalues --    0.55891   0.58017   0.60647   0.63154   0.63958
  Beta virt. eigenvalues --    0.64546   0.67761   0.69541   0.70485   0.72264
  Beta virt. eigenvalues --    0.75693   0.77849   0.79154   0.79986   0.80347
  Beta virt. eigenvalues --    0.80936   0.83546   0.83712   0.83996   0.84871
  Beta virt. eigenvalues --    0.85523   0.86216   0.87380   0.88881   0.90026
  Beta virt. eigenvalues --    0.91047   0.92059   0.92655   0.93297   0.94297
  Beta virt. eigenvalues --    0.95716   0.96262   0.98186   0.99708   1.00613
  Beta virt. eigenvalues --    1.02018   1.03932   1.04543   1.05916   1.07854
  Beta virt. eigenvalues --    1.08365   1.09182   1.09609   1.10495   1.11224
  Beta virt. eigenvalues --    1.12792   1.15198   1.17455   1.17921   1.19854
  Beta virt. eigenvalues --    1.22338   1.23210   1.23892   1.25216   1.27157
  Beta virt. eigenvalues --    1.28315   1.31471   1.34342   1.35073   1.38364
  Beta virt. eigenvalues --    1.41705   1.44836   1.47310   1.48339   1.52699
  Beta virt. eigenvalues --    1.55556   1.57069   1.57155   1.59436   1.61256
  Beta virt. eigenvalues --    1.63294   1.66941   1.67781   1.69029   1.69603
  Beta virt. eigenvalues --    1.70150   1.72836   1.74498   1.79594   1.80436
  Beta virt. eigenvalues --    1.83826   1.84942   1.86035   1.86059   1.86629
  Beta virt. eigenvalues --    1.88129   1.89317   1.90155   1.90630   1.91254
  Beta virt. eigenvalues --    1.92894   1.93147   1.94378   1.95517   1.97250
  Beta virt. eigenvalues --    1.98293   2.01648   2.04419   2.05564   2.06253
  Beta virt. eigenvalues --    2.07019   2.08767   2.11047   2.13900   2.14960
  Beta virt. eigenvalues --    2.15978   2.17745   2.20763   2.21531   2.22302
  Beta virt. eigenvalues --    2.24530   2.24876   2.26535   2.28124   2.29914
  Beta virt. eigenvalues --    2.31524   2.32956   2.34831   2.37838   2.39028
  Beta virt. eigenvalues --    2.41123   2.43533   2.44432   2.47725   2.50233
  Beta virt. eigenvalues --    2.53994   2.54415   2.55139   2.58953   2.65493
  Beta virt. eigenvalues --    2.67077   2.68473   2.69613   2.70709   2.72679
  Beta virt. eigenvalues --    2.72993   2.73936   2.77006   2.80303   2.80919
  Beta virt. eigenvalues --    2.82066   2.84226   2.85845   2.86835   2.88532
  Beta virt. eigenvalues --    2.89519   2.91761   2.92431   2.97908   2.99060
  Beta virt. eigenvalues --    2.99981   3.04226   3.19840   3.28049   3.30633
  Beta virt. eigenvalues --    3.32095   3.39232   3.40883   3.42378   3.45406
  Beta virt. eigenvalues --    3.47070   3.51668   3.55477   3.56506   3.59432
  Beta virt. eigenvalues --    3.61077   3.85646   3.92922   3.96837   4.01518
  Beta virt. eigenvalues --    4.05216   4.11547   4.15923   4.24945   4.36073
  Beta virt. eigenvalues --    4.46996   4.57970   4.75653
     Alpha Molecular Orbital Coefficients:
                           1         2         3         4         5
                           O         O         O         O         O
     Eigenvalues --   -77.14904 -77.13825 -19.13431 -19.12216 -19.11720
   1 1   C  1S          0.00000   0.00000   0.00000   0.00000   0.00001
   2        2S          0.00001   0.00002   0.00000   0.00003   0.00004
   3        2PX        -0.00000   0.00000  -0.00001   0.00002   0.00002
   4        2PY         0.00000  -0.00001  -0.00000   0.00000   0.00001
   5        2PZ        -0.00000   0.00000  -0.00000  -0.00000  -0.00003
   6        3S         -0.00002  -0.00017   0.00002  -0.00029  -0.00035
   7        3PX         0.00003   0.00006   0.00005  -0.00004   0.00003
   8        3PY         0.00005  -0.00002   0.00008  -0.00014  -0.00019
   9        3PZ         0.00003  -0.00003   0.00000  -0.00008   0.00005
  10        4XX         0.00000   0.00000   0.00000  -0.00001  -0.00001
  11        4YY         0.00001   0.00000   0.00000   0.00000   0.00001
  12        4ZZ         0.00000   0.00001   0.00000   0.00000  -0.00001
  13        4XY        -0.00000   0.00000  -0.00000   0.00001   0.00001
  14        4XZ        -0.00000   0.00000   0.00000   0.00000   0.00001
  15        4YZ         0.00000  -0.00000   0.00000  -0.00001  -0.00001
  16 2   C  1S         -0.00001   0.00001   0.00000   0.00001  -0.00001
  17        2S         -0.00002   0.00006   0.00000  -0.00000  -0.00007
  18        2PX         0.00002  -0.00003   0.00001  -0.00001  -0.00006
  19        2PY         0.00000   0.00001   0.00001   0.00004   0.00000
  20        2PZ        -0.00000   0.00001  -0.00001   0.00004   0.00004
  21        3S          0.00009  -0.00031  -0.00002  -0.00028   0.00046
  22        3PX        -0.00015   0.00038  -0.00004   0.00034   0.00031
  23        3PY        -0.00002  -0.00002  -0.00001  -0.00015  -0.00013
  24        3PZ         0.00005  -0.00004   0.00009  -0.00016   0.00019
  25        4XX        -0.00000   0.00000  -0.00000   0.00002   0.00000
  26        4YY        -0.00002   0.00002  -0.00000   0.00004   0.00001
  27        4ZZ        -0.00002   0.00002   0.00000  -0.00000   0.00002
  28        4XY         0.00001  -0.00000  -0.00001  -0.00002  -0.00001
  29        4XZ         0.00000  -0.00001  -0.00000  -0.00002  -0.00005
  30        4YZ        -0.00000  -0.00000  -0.00000   0.00003  -0.00000
  31 3   H  1S          0.00000   0.00001  -0.00000  -0.00000  -0.00001
  32        2S          0.00004   0.00001   0.00008  -0.00002  -0.00005
  33        3PX        -0.00000  -0.00000  -0.00000   0.00000   0.00000
  34        3PY         0.00000   0.00000   0.00001  -0.00000  -0.00001
  35        3PZ        -0.00000   0.00000  -0.00000   0.00001  -0.00000
  36 4   H  1S          0.00000  -0.00000   0.00000   0.00000   0.00003
  37        2S          0.00002   0.00002  -0.00003   0.00001   0.00011
  38        3PX        -0.00000  -0.00000  -0.00000   0.00000  -0.00000
  39        3PY        -0.00000  -0.00000  -0.00000   0.00001   0.00001
  40        3PZ         0.00000   0.00000  -0.00000   0.00000   0.00001
  41 5   C  1S         -0.00000  -0.00002   0.00000  -0.00005   0.00000
  42        2S          0.00002  -0.00004  -0.00003  -0.00023   0.00005
  43        2PX         0.00003   0.00002  -0.00003   0.00001  -0.00002
  44        2PY        -0.00001  -0.00003  -0.00000  -0.00004  -0.00002
  45        2PZ         0.00000  -0.00001   0.00002   0.00001   0.00007
  46        3S         -0.00024   0.00039   0.00012   0.00150   0.00042
  47        3PX         0.00022   0.00022   0.00009  -0.00040  -0.00004
  48        3PY        -0.00006  -0.00004  -0.00019   0.00061   0.00028
  49        3PZ        -0.00021   0.00005  -0.00004   0.00033  -0.00023
  50        4XX        -0.00005  -0.00003   0.00002  -0.00005   0.00001
  51        4YY        -0.00001  -0.00006   0.00004  -0.00006   0.00001
  52        4ZZ        -0.00002  -0.00003   0.00001  -0.00007  -0.00006
  53        4XY         0.00001   0.00003   0.00003  -0.00001   0.00002
  54        4XZ         0.00001   0.00000   0.00000  -0.00002   0.00002
  55        4YZ         0.00001  -0.00001  -0.00000   0.00003  -0.00000
  56 6   H  1S         -0.00001   0.00003  -0.00001   0.00005   0.00010
  57        2S         -0.00002   0.00004  -0.00004   0.00010  -0.00062
  58        3PX         0.00001  -0.00002   0.00000  -0.00002   0.00002
  59        3PY        -0.00000   0.00000  -0.00000   0.00002  -0.00001
  60        3PZ        -0.00000   0.00000   0.00000  -0.00001   0.00006
  61 7   H  1S         -0.00001   0.00003   0.00001   0.00004  -0.00004
  62        2S          0.00003  -0.00011   0.00001   0.00012   0.00018
  63        3PX         0.00001   0.00001   0.00000  -0.00001  -0.00004
  64        3PY        -0.00001   0.00000  -0.00001   0.00000  -0.00000
  65        3PZ        -0.00000   0.00001  -0.00001  -0.00001   0.00000
  66 8   H  1S          0.00001   0.00001  -0.00004  -0.00006  -0.00004
  67        2S         -0.00019  -0.00020   0.00011  -0.00002  -0.00022
  68        3PX         0.00002   0.00001  -0.00002   0.00001   0.00002
  69        3PY         0.00001  -0.00003  -0.00000  -0.00003  -0.00002
  70        3PZ        -0.00001  -0.00002   0.00001   0.00000  -0.00001
  71 9   H  1S          0.00002  -0.00002   0.00004  -0.00001   0.00005
  72        2S         -0.00015  -0.00004  -0.00026   0.00012   0.00014
  73        3PX         0.00003  -0.00001   0.00003   0.00001  -0.00002
  74        3PY        -0.00001   0.00001  -0.00002   0.00001   0.00001
  75        3PZ         0.00000  -0.00001   0.00002  -0.00002   0.00004
  76 10  N  1S         -0.00000   0.00000   0.00000  -0.00000   0.00000
  77        2S         -0.00000   0.00001   0.00001  -0.00001   0.00001
  78        2PX         0.00000  -0.00001   0.00000  -0.00000  -0.00001
  79        2PY        -0.00000   0.00000  -0.00000   0.00000   0.00000
  80        2PZ        -0.00000   0.00000  -0.00000   0.00000   0.00001
  81        3S         -0.00001  -0.00005  -0.00006   0.00014  -0.00001
  82        3PX        -0.00001   0.00004   0.00003  -0.00004   0.00002
  83        3PY         0.00002  -0.00003   0.00001  -0.00003   0.00001
  84        3PZ         0.00002  -0.00000   0.00002  -0.00003  -0.00012
  85        4XX        -0.00000   0.00001   0.00000   0.00000   0.00001
  86        4YY        -0.00000   0.00001   0.00001  -0.00001   0.00002
  87        4ZZ        -0.00000   0.00001   0.00000  -0.00000   0.00000
  88        4XY         0.00000  -0.00000  -0.00000   0.00000  -0.00000
  89        4XZ         0.00000  -0.00000  -0.00000   0.00000   0.00000
  90        4YZ        -0.00000   0.00000  -0.00000   0.00000   0.00000
  91 11  H  1S          0.00001  -0.00001   0.00000  -0.00001  -0.00001
  92        2S          0.00001  -0.00003  -0.00000  -0.00001  -0.00004
  93        3PX        -0.00000   0.00000  -0.00000   0.00000   0.00001
  94        3PY         0.00000  -0.00000  -0.00000   0.00000  -0.00001
  95        3PZ         0.00000  -0.00000  -0.00000   0.00000   0.00000
  96 12  H  1S         -0.00000   0.00001  -0.00000  -0.00000   0.00000
  97        2S         -0.00000   0.00002  -0.00000   0.00001  -0.00004
  98        3PX         0.00000  -0.00000   0.00000   0.00000  -0.00000
  99        3PY         0.00000  -0.00000   0.00000  -0.00000   0.00001
 100        3PZ        -0.00000   0.00000  -0.00000   0.00000   0.00000
 101 13  H  1S         -0.00000   0.00000   0.00000   0.00000   0.00001
 102        2S         -0.00001  -0.00001  -0.00000  -0.00000   0.00012
 103        3PX         0.00000  -0.00000  -0.00000   0.00000  -0.00001
 104        3PY        -0.00000   0.00000  -0.00000   0.00000   0.00000
 105        3PZ        -0.00000   0.00000   0.00000   0.00000  -0.00001
 106 14  C  1S         -0.00004  -0.00004  -0.00002  -0.00001  -0.00002
 107        2S         -0.00009  -0.00003  -0.00014  -0.00006   0.00008
 108        2PX        -0.00003  -0.00000  -0.00000   0.00006   0.00006
 109        2PY        -0.00003   0.00004  -0.00002   0.00002  -0.00005
 110        2PZ         0.00000  -0.00001  -0.00006  -0.00002   0.00030
 111        3S          0.00120   0.00080   0.00088   0.00019  -0.00108
 112        3PX        -0.00027  -0.00004  -0.00031  -0.00073  -0.00031
 113        3PY        -0.00031   0.00045  -0.00023   0.00079   0.00036
 114        3PZ        -0.00003   0.00003  -0.00008   0.00021  -0.00089
 115        4XX        -0.00012  -0.00008   0.00001  -0.00004   0.00000
 116        4YY        -0.00009  -0.00014   0.00001   0.00006   0.00003
 117        4ZZ        -0.00007  -0.00007  -0.00004  -0.00001   0.00028
 118        4XY        -0.00003   0.00001   0.00003   0.00002  -0.00000
 119        4XZ        -0.00001  -0.00000  -0.00001   0.00003   0.00005
 120        4YZ        -0.00000   0.00003   0.00001  -0.00002  -0.00002
 121 15  O  1S          0.00000   0.00000   0.00000  -0.00016   0.99275
 122        2S          0.00001   0.00003  -0.00013  -0.00008   0.02584
 123        2PX         0.00002   0.00001   0.00002   0.00001  -0.00083
 124        2PY         0.00001   0.00000   0.00005  -0.00002  -0.00011
 125        2PZ         0.00001   0.00002   0.00005   0.00000  -0.00042
 126        3S         -0.00021  -0.00027   0.00039   0.00023   0.01213
 127        3PX        -0.00002  -0.00002  -0.00004   0.00006  -0.00012
 128        3PY         0.00003  -0.00013  -0.00017   0.00014   0.00005
 129        3PZ         0.00017   0.00011  -0.00021  -0.00005  -0.00038
 130        4XX         0.00003  -0.00001  -0.00012  -0.00003  -0.00800
 131        4YY        -0.00002   0.00001  -0.00009   0.00000  -0.00809
 132        4ZZ        -0.00000   0.00000  -0.00009  -0.00005  -0.00817
 133        4XY         0.00003  -0.00001   0.00003  -0.00000   0.00001
 134        4XZ        -0.00001   0.00001   0.00002  -0.00002  -0.00005
 135        4YZ         0.00000   0.00001   0.00002  -0.00000   0.00000
 136 16  H  1S         -0.00002   0.00002  -0.00007  -0.00008   0.00030
 137        2S         -0.00023  -0.00013   0.00042   0.00016  -0.00156
 138        3PX        -0.00002  -0.00000   0.00003   0.00001  -0.00013
 139        3PY        -0.00001  -0.00002  -0.00001  -0.00001  -0.00003
 140        3PZ        -0.00002   0.00002  -0.00002   0.00001   0.00011
 141 17  P  1S          0.99625   0.00018   0.00001  -0.00000   0.00000
 142        2S          0.01417  -0.00000   0.00001   0.00000   0.00001
 143        2PX         0.00003   0.00001  -0.00003  -0.00000   0.00000
 144        2PY        -0.00002   0.00001   0.00006   0.00001  -0.00000
 145        2PZ         0.00000  -0.00000  -0.00000   0.00000  -0.00000
 146        3S         -0.02720   0.00010   0.00006   0.00001   0.00013
 147        3PX        -0.00017  -0.00008   0.00012  -0.00000   0.00001
 148        3PY        -0.00004  -0.00006  -0.00005  -0.00005   0.00004
 149        3PZ        -0.00003   0.00002   0.00004  -0.00001   0.00007
 150        4S          0.00286  -0.00007  -0.00270  -0.00009   0.00005
 151        4PX         0.00015   0.00006  -0.00082  -0.00002  -0.00021
 152        4PY         0.00027  -0.00012   0.00130  -0.00004   0.00021
 153        4PZ        -0.00006   0.00003  -0.00119   0.00018   0.00020
 154        5XX         0.00941  -0.00005   0.00006   0.00001   0.00002
 155        5YY         0.00942  -0.00008   0.00030  -0.00003  -0.00005
 156        5ZZ         0.00946  -0.00003  -0.00003  -0.00001  -0.00003
 157        5XY        -0.00002  -0.00004  -0.00012  -0.00003   0.00001
 158        5XZ        -0.00002  -0.00001   0.00004  -0.00003  -0.00003
 159        5YZ        -0.00003  -0.00002   0.00005  -0.00002  -0.00000
 160 18  P  1S         -0.00018   0.99625   0.00000   0.00001   0.00000
 161        2S          0.00000   0.01417   0.00001   0.00003   0.00005
 162        2PX        -0.00000   0.00003  -0.00000  -0.00005  -0.00001
 163        2PY        -0.00001  -0.00001   0.00000  -0.00001   0.00001
 164        2PZ         0.00000   0.00002   0.00000  -0.00004   0.00000
 165        3S          0.00015  -0.02721   0.00005   0.00014   0.00028
 166        3PX         0.00001  -0.00008   0.00001   0.00011   0.00012
 167        3PY         0.00008   0.00014  -0.00002  -0.00014  -0.00013
 168        3PZ        -0.00004  -0.00007  -0.00001   0.00010   0.00004
 169        4S         -0.00030   0.00297  -0.00029  -0.00326  -0.00122
 170        4PX         0.00011   0.00012   0.00040  -0.00084  -0.00011
 171        4PY         0.00012  -0.00030   0.00017   0.00025   0.00040
 172        4PZ         0.00005  -0.00012   0.00002  -0.00151  -0.00050
 173        5XX        -0.00003   0.00943   0.00000   0.00016   0.00002
 174        5YY        -0.00011   0.00939  -0.00002   0.00011   0.00002
 175        5ZZ        -0.00004   0.00948   0.00001   0.00009   0.00000
 176        5XY        -0.00002  -0.00000   0.00000   0.00010  -0.00002
 177        5XZ         0.00001  -0.00001   0.00002   0.00019   0.00003
 178        5YZ         0.00000   0.00002  -0.00000   0.00006  -0.00002
 179 19  O  1S          0.00000   0.00001  -0.00004   0.00000  -0.00001
 180        2S         -0.00006   0.00003  -0.00023   0.00005   0.00000
 181        2PX        -0.00009   0.00001   0.00000   0.00002   0.00000
 182        2PY         0.00002   0.00001   0.00003  -0.00000  -0.00001
 183        2PZ         0.00014  -0.00001  -0.00003   0.00000  -0.00004
 184        3S          0.00062  -0.00012   0.00147  -0.00024  -0.00000
 185        3PX         0.00021  -0.00005   0.00023  -0.00008   0.00010
 186        3PY        -0.00007  -0.00002  -0.00022   0.00001   0.00006
 187        3PZ        -0.00033   0.00005  -0.00013  -0.00001   0.00024
 188        4XX        -0.00004   0.00003  -0.00012   0.00003  -0.00000
 189        4YY         0.00003   0.00003  -0.00019   0.00005   0.00001
 190        4ZZ        -0.00015   0.00003  -0.00015   0.00004  -0.00001
 191        4XY         0.00000  -0.00001   0.00002  -0.00001   0.00001
 192        4XZ         0.00014   0.00002  -0.00000  -0.00000   0.00003
 193        4YZ         0.00000   0.00000  -0.00001  -0.00001   0.00001
 194 20  O  1S          0.00000   0.00001  -0.00001  -0.00004  -0.00003
 195        2S          0.00002  -0.00006  -0.00007  -0.00019  -0.00016
 196        2PX        -0.00001  -0.00015  -0.00001   0.00001  -0.00003
 197        2PY        -0.00001   0.00004   0.00000   0.00001   0.00002
 198        2PZ         0.00001   0.00007   0.00000  -0.00006  -0.00003
 199        3S         -0.00003   0.00062   0.00037   0.00117   0.00074
 200        3PX         0.00003   0.00037   0.00005   0.00030   0.00021
 201        3PY         0.00006  -0.00007  -0.00004  -0.00015  -0.00015
 202        3PZ        -0.00003  -0.00016  -0.00004   0.00021   0.00010
 203        4XX         0.00002  -0.00015  -0.00005  -0.00013  -0.00009
 204        4YY        -0.00001   0.00000  -0.00005  -0.00011  -0.00011
 205        4ZZ         0.00002   0.00001  -0.00004  -0.00013  -0.00013
 206        4XY        -0.00001   0.00010  -0.00001  -0.00004  -0.00003
 207        4XZ         0.00000   0.00009  -0.00000  -0.00001   0.00001
 208        4YZ        -0.00000  -0.00004  -0.00000  -0.00003  -0.00001
 209 21  O  1S          0.00002   0.00001  -0.00001  -0.00001   0.00000
 210        2S         -0.00002   0.00003   0.00008  -0.00003   0.00001
 211        2PX        -0.00006   0.00001  -0.00001  -0.00000  -0.00001
 212        2PY         0.00005   0.00001   0.00002   0.00001   0.00001
 213        2PZ        -0.00016  -0.00001   0.00002  -0.00000   0.00002
 214        3S          0.00038  -0.00009  -0.00035   0.00017  -0.00002
 215        3PX         0.00011  -0.00006   0.00009   0.00002   0.00005
 216        3PY        -0.00015  -0.00005  -0.00016  -0.00004  -0.00005
 217        3PZ         0.00035   0.00001   0.00002   0.00003  -0.00005
 218        4XX         0.00003   0.00002   0.00009  -0.00002   0.00001
 219        4YY         0.00006   0.00001   0.00003  -0.00002   0.00002
 220        4ZZ        -0.00013   0.00003   0.00008  -0.00002   0.00001
 221        4XY         0.00003  -0.00002   0.00002  -0.00001  -0.00001
 222        4XZ        -0.00011  -0.00001   0.00001   0.00000   0.00000
 223        4YZ         0.00006  -0.00000  -0.00001  -0.00000  -0.00001
 224 22  O  1S          0.00000   0.00002  -0.00000  -0.00003   0.00000
 225        2S          0.00000   0.00002  -0.00000  -0.00005   0.00001
 226        2PX        -0.00001   0.00005   0.00002  -0.00005  -0.00001
 227        2PY        -0.00001   0.00000  -0.00000  -0.00000   0.00001
 228        2PZ         0.00001  -0.00016  -0.00000  -0.00001  -0.00000
 229        3S         -0.00000   0.00024   0.00000   0.00035  -0.00001
 230        3PX         0.00001  -0.00010  -0.00008   0.00020   0.00004
 231        3PY         0.00002   0.00004  -0.00001  -0.00002  -0.00004
 232        3PZ        -0.00002   0.00035  -0.00000   0.00027   0.00004
 233        4XX         0.00002   0.00008   0.00001  -0.00005   0.00002
 234        4YY         0.00001   0.00009   0.00000  -0.00002   0.00001
 235        4ZZ         0.00001  -0.00015   0.00000  -0.00001   0.00002
 236        4XY        -0.00001  -0.00001  -0.00000  -0.00002   0.00000
 237        4XZ         0.00000   0.00007  -0.00001  -0.00001   0.00000
 238        4YZ         0.00000   0.00005  -0.00000  -0.00002   0.00001
 239 23  O  1S         -0.00000  -0.00002   0.00000   0.99273   0.00013
 240        2S         -0.00001  -0.00005   0.00002   0.02581  -0.00011
 241        2PX         0.00000   0.00002  -0.00000   0.00020   0.00001
 242        2PY         0.00001   0.00000   0.00000   0.00019  -0.00001
 243        2PZ         0.00000   0.00004  -0.00001  -0.00088   0.00001
 244        3S          0.00002   0.00080  -0.00011   0.01234   0.00059
 245        3PX        -0.00001  -0.00017   0.00001  -0.00048  -0.00006
 246        3PY        -0.00003  -0.00002  -0.00000  -0.00043  -0.00006
 247        3PZ        -0.00000  -0.00033   0.00003  -0.00010  -0.00008
 248        4XX        -0.00000  -0.00012   0.00001  -0.00813  -0.00004
 249        4YY        -0.00000  -0.00010   0.00001  -0.00812  -0.00004
 250        4ZZ        -0.00001  -0.00009   0.00000  -0.00813  -0.00004
 251        4XY         0.00000  -0.00005   0.00000   0.00002   0.00001
 252        4XZ         0.00000  -0.00013  -0.00000  -0.00005  -0.00004
 253        4YZ         0.00000  -0.00009  -0.00000  -0.00002  -0.00001
 254 24  H  1S          0.00001  -0.00012   0.00002   0.00030  -0.00007
 255        2S         -0.00002  -0.00023  -0.00009  -0.00092  -0.00002
 256        3PX         0.00000  -0.00000   0.00000   0.00012   0.00002
 257        3PY         0.00000  -0.00000   0.00001   0.00009   0.00001
 258        3PZ         0.00000  -0.00003   0.00000  -0.00007  -0.00002
 259 25  O  1S         -0.00002  -0.00000   0.99273   0.00000  -0.00006
 260        2S         -0.00008  -0.00000   0.02583  -0.00001  -0.00008
 261        2PX         0.00002  -0.00001   0.00000  -0.00000  -0.00001
 262        2PY        -0.00005  -0.00001   0.00032  -0.00001  -0.00003
 263        2PZ         0.00002   0.00000  -0.00088   0.00000  -0.00000
 264        3S          0.00094  -0.00002   0.01227   0.00002   0.00034
 265        3PX        -0.00012   0.00002  -0.00007   0.00000   0.00002
 266        3PY         0.00034   0.00002   0.00050   0.00004   0.00014
 267        3PZ        -0.00015  -0.00001   0.00041  -0.00001   0.00003
 268        4XX        -0.00009  -0.00000  -0.00814  -0.00001  -0.00007
 269        4YY        -0.00027   0.00000  -0.00817  -0.00000  -0.00005
 270        4ZZ        -0.00001  -0.00001  -0.00811  -0.00001  -0.00008
 271        4XY         0.00006   0.00000   0.00002   0.00000   0.00001
 272        4XZ        -0.00001   0.00000  -0.00001   0.00000   0.00001
 273        4YZ         0.00000  -0.00000   0.00003  -0.00000   0.00000
 274 26  H  1S         -0.00012  -0.00001   0.00036  -0.00000  -0.00000
 275        2S         -0.00021   0.00000  -0.00094   0.00004   0.00008
 276        3PX         0.00000  -0.00000   0.00003  -0.00000  -0.00001
 277        3PY         0.00000  -0.00000  -0.00007   0.00000   0.00000
 278        3PZ        -0.00001   0.00000  -0.00012   0.00001   0.00002
                           6         7         8         9        10
                           O         O         O         O         O
     Eigenvalues --   -19.06391 -19.06161 -19.05083 -19.04907 -14.38218
   1 1   C  1S         -0.00000  -0.00000   0.00000   0.00000  -0.00002
   2        2S         -0.00001  -0.00000  -0.00001   0.00002  -0.00007
   3        2PX        -0.00001   0.00001  -0.00002   0.00001   0.00022
   4        2PY        -0.00000   0.00000   0.00002  -0.00001   0.00007
   5        2PZ         0.00000  -0.00000  -0.00001   0.00000   0.00008
   6        3S          0.00015  -0.00007   0.00012  -0.00015   0.00024
   7        3PX         0.00005  -0.00011   0.00009   0.00004   0.00005
   8        3PY         0.00006  -0.00006  -0.00009  -0.00000   0.00010
   9        3PZ         0.00004  -0.00003   0.00025  -0.00003   0.00009
  10        4XX         0.00001  -0.00001   0.00001  -0.00000   0.00020
  11        4YY         0.00000  -0.00001   0.00002  -0.00001   0.00002
  12        4ZZ        -0.00000  -0.00000   0.00001   0.00001   0.00002
  13        4XY         0.00000  -0.00000  -0.00000   0.00001   0.00008
  14        4XZ         0.00000  -0.00001  -0.00001   0.00000   0.00009
  15        4YZ        -0.00000   0.00000   0.00001  -0.00000   0.00003
  16 2   C  1S          0.00001  -0.00002  -0.00001  -0.00000   0.00001
  17        2S          0.00005  -0.00011   0.00001  -0.00003   0.00010
  18        2PX         0.00001   0.00000   0.00007  -0.00004  -0.00001
  19        2PY        -0.00000  -0.00001  -0.00003   0.00001  -0.00000
  20        2PZ         0.00000  -0.00001   0.00003  -0.00000  -0.00000
  21        3S         -0.00042   0.00086  -0.00024   0.00030  -0.00041
  22        3PX         0.00011  -0.00042  -0.00028   0.00019  -0.00016
  23        3PY         0.00005  -0.00007   0.00007   0.00020   0.00003
  24        3PZ         0.00013  -0.00017  -0.00017  -0.00008   0.00003
  25        4XX        -0.00001   0.00001  -0.00001   0.00000  -0.00006
  26        4YY         0.00001  -0.00003  -0.00001   0.00001   0.00001
  27        4ZZ         0.00001  -0.00003  -0.00005   0.00001   0.00001
  28        4XY         0.00000   0.00001   0.00002  -0.00003   0.00000
  29        4XZ        -0.00001   0.00002   0.00001  -0.00000  -0.00000
  30        4YZ        -0.00000   0.00001   0.00000  -0.00001   0.00000
  31 3   H  1S          0.00000  -0.00001  -0.00002   0.00001  -0.00004
  32        2S         -0.00002  -0.00000  -0.00010   0.00004  -0.00004
  33        3PX        -0.00000   0.00000  -0.00001  -0.00000  -0.00005
  34        3PY        -0.00000   0.00000  -0.00001   0.00001  -0.00003
  35        3PZ        -0.00000   0.00000  -0.00001   0.00000  -0.00002
  36 4   H  1S         -0.00001   0.00001   0.00003  -0.00000  -0.00004
  37        2S          0.00001  -0.00002   0.00012   0.00002  -0.00003
  38        3PX        -0.00001   0.00001  -0.00001  -0.00000  -0.00005
  39        3PY        -0.00000   0.00000   0.00000  -0.00000  -0.00002
  40        3PZ         0.00000  -0.00000   0.00001  -0.00000  -0.00004
  41 5   C  1S          0.00000  -0.00001  -0.00001   0.00002  -0.00000
  42        2S          0.00002  -0.00004  -0.00004   0.00005  -0.00001
  43        2PX        -0.00002   0.00010  -0.00002  -0.00002  -0.00001
  44        2PY        -0.00002   0.00002  -0.00006   0.00008   0.00000
  45        2PZ        -0.00003   0.00003  -0.00003  -0.00001   0.00000
  46        3S         -0.00009  -0.00001  -0.00029  -0.00003   0.00001
  47        3PX         0.00048  -0.00094   0.00026   0.00013   0.00015
  48        3PY         0.00029  -0.00031   0.00016  -0.00053  -0.00002
  49        3PZ        -0.00011   0.00007  -0.00012   0.00020  -0.00002
  50        4XX         0.00000  -0.00005  -0.00004   0.00003   0.00001
  51        4YY         0.00000  -0.00002  -0.00002   0.00006  -0.00001
  52        4ZZ        -0.00001  -0.00003  -0.00002   0.00004  -0.00001
  53        4XY        -0.00000  -0.00002   0.00000   0.00002   0.00001
  54        4XZ         0.00003  -0.00004   0.00001   0.00000   0.00001
  55        4YZ         0.00000   0.00001  -0.00003  -0.00000   0.00000
  56 6   H  1S          0.00001  -0.00002   0.00004  -0.00001   0.00002
  57        2S         -0.00001  -0.00002   0.00011   0.00002   0.00005
  58        3PX        -0.00001   0.00002   0.00002  -0.00001   0.00001
  59        3PY        -0.00000   0.00000  -0.00001  -0.00001  -0.00000
  60        3PZ        -0.00000  -0.00000  -0.00002   0.00000   0.00000
  61 7   H  1S          0.00001  -0.00003  -0.00006   0.00002   0.00001
  62        2S          0.00002  -0.00002   0.00036  -0.00044   0.00007
  63        3PX        -0.00000   0.00001  -0.00003   0.00001   0.00001
  64        3PY         0.00000  -0.00001  -0.00001   0.00002  -0.00000
  65        3PZ        -0.00001   0.00000  -0.00000   0.00000   0.00000
  66 8   H  1S          0.00004  -0.00006   0.00006   0.00008  -0.00001
  67        2S         -0.00017   0.00030  -0.00006  -0.00005   0.00001
  68        3PX        -0.00002   0.00003  -0.00003   0.00000  -0.00001
  69        3PY        -0.00001   0.00001   0.00002   0.00001   0.00000
  70        3PZ        -0.00001   0.00002  -0.00003  -0.00001   0.00000
  71 9   H  1S          0.00002  -0.00004   0.00002  -0.00006  -0.00001
  72        2S          0.00024  -0.00019   0.00017  -0.00025   0.00000
  73        3PX        -0.00002   0.00004  -0.00001  -0.00001  -0.00001
  74        3PY         0.00001  -0.00001   0.00002  -0.00002   0.00000
  75        3PZ        -0.00001   0.00001   0.00000   0.00000   0.00000
  76 10  N  1S          0.00000  -0.00001  -0.00000   0.00000   0.99256
  77        2S          0.00002  -0.00003  -0.00000   0.00001   0.03505
  78        2PX        -0.00000   0.00001   0.00000  -0.00000  -0.00012
  79        2PY         0.00000  -0.00000  -0.00001   0.00000  -0.00005
  80        2PZ        -0.00000  -0.00000   0.00000   0.00000  -0.00005
  81        3S         -0.00011   0.00017  -0.00004  -0.00006   0.00444
  82        3PX         0.00007  -0.00013   0.00002   0.00002   0.00027
  83        3PY         0.00000   0.00002   0.00012  -0.00005   0.00014
  84        3PZ         0.00002  -0.00002  -0.00001   0.00000   0.00014
  85        4XX         0.00000  -0.00001  -0.00001   0.00001  -0.00859
  86        4YY         0.00001  -0.00002   0.00000   0.00001  -0.00855
  87        4ZZ         0.00001  -0.00002  -0.00000   0.00001  -0.00855
  88        4XY        -0.00000   0.00001  -0.00001   0.00000  -0.00002
  89        4XZ        -0.00000   0.00001   0.00000  -0.00000  -0.00002
  90        4YZ        -0.00000  -0.00000  -0.00000   0.00000  -0.00001
  91 11  H  1S         -0.00000   0.00001   0.00001  -0.00000   0.00035
  92        2S         -0.00001   0.00003   0.00002  -0.00002  -0.00053
  93        3PX        -0.00000  -0.00000  -0.00000   0.00000  -0.00005
  94        3PY        -0.00000   0.00000  -0.00000  -0.00000   0.00003
  95        3PZ        -0.00000   0.00001   0.00000  -0.00000   0.00002
  96 12  H  1S          0.00001  -0.00002  -0.00001   0.00001   0.00034
  97        2S         -0.00000   0.00001  -0.00009   0.00006  -0.00057
  98        3PX        -0.00000   0.00000   0.00000  -0.00001  -0.00001
  99        3PY         0.00000  -0.00000   0.00001  -0.00000  -0.00006
 100        3PZ        -0.00000  -0.00000  -0.00000   0.00000   0.00001
 101 13  H  1S          0.00000  -0.00001   0.00000   0.00000   0.00034
 102        2S         -0.00001   0.00002   0.00001  -0.00000  -0.00057
 103        3PX        -0.00000   0.00000   0.00000  -0.00000  -0.00000
 104        3PY         0.00000  -0.00000  -0.00001   0.00000   0.00000
 105        3PZ         0.00000  -0.00001  -0.00000   0.00000  -0.00006
 106 14  C  1S         -0.00003  -0.00002  -0.00004  -0.00001  -0.00000
 107        2S         -0.00019  -0.00011  -0.00022  -0.00011  -0.00001
 108        2PX         0.00000   0.00001  -0.00004   0.00003   0.00001
 109        2PY         0.00004  -0.00003  -0.00001  -0.00000   0.00000
 110        2PZ        -0.00001   0.00006   0.00005  -0.00004   0.00000
 111        3S          0.00131   0.00037   0.00136   0.00061   0.00009
 112        3PX        -0.00028  -0.00060   0.00046  -0.00033   0.00002
 113        3PY        -0.00063   0.00035   0.00057   0.00031  -0.00004
 114        3PZ         0.00053  -0.00056  -0.00053  -0.00008  -0.00005
 115        4XX        -0.00001   0.00003  -0.00005   0.00001  -0.00000
 116        4YY        -0.00004  -0.00001   0.00001   0.00003   0.00000
 117        4ZZ         0.00003  -0.00004  -0.00003  -0.00002  -0.00000
 118        4XY         0.00000   0.00003  -0.00001  -0.00002  -0.00000
 119        4XZ         0.00002   0.00004  -0.00001   0.00000  -0.00000
 120        4YZ         0.00001  -0.00000  -0.00003  -0.00001   0.00000
 121 15  O  1S          0.00001  -0.00000   0.00001  -0.00004   0.00000
 122        2S          0.00001  -0.00002   0.00003  -0.00013  -0.00000
 123        2PX         0.00002  -0.00001  -0.00000   0.00002   0.00000
 124        2PY         0.00003  -0.00002   0.00003  -0.00004  -0.00000
 125        2PZ        -0.00004  -0.00001  -0.00001   0.00002  -0.00000
 126        3S         -0.00014   0.00026  -0.00004   0.00048   0.00001
 127        3PX        -0.00015   0.00008  -0.00007  -0.00001  -0.00001
 128        3PY        -0.00012   0.00004  -0.00015   0.00016   0.00001
 129        3PZ         0.00036  -0.00005   0.00008  -0.00012  -0.00000
 130        4XX         0.00001  -0.00000   0.00004  -0.00012   0.00000
 131        4YY         0.00002  -0.00000   0.00003  -0.00008   0.00000
 132        4ZZ        -0.00008   0.00002   0.00002  -0.00010   0.00000
 133        4XY         0.00002  -0.00000   0.00002  -0.00003  -0.00000
 134        4XZ         0.00000  -0.00002   0.00001   0.00000  -0.00000
 135        4YZ        -0.00001   0.00000   0.00002  -0.00001  -0.00000
 136 16  H  1S         -0.00007   0.00003   0.00002  -0.00003  -0.00000
 137        2S         -0.00036  -0.00025  -0.00015   0.00015  -0.00000
 138        3PX         0.00010  -0.00001  -0.00003   0.00003  -0.00000
 139        3PY         0.00005   0.00000   0.00000   0.00000  -0.00000
 140        3PZ         0.00007   0.00002   0.00000  -0.00001   0.00000
 141 17  P  1S          0.00001   0.00002  -0.00000  -0.00000  -0.00000
 142        2S         -0.00007  -0.00006  -0.00004  -0.00001  -0.00000
 143        2PX         0.00001  -0.00001   0.00000   0.00000   0.00000
 144        2PY        -0.00001  -0.00000   0.00000  -0.00001   0.00000
 145        2PZ        -0.00001   0.00002  -0.00001  -0.00000   0.00000
 146        3S          0.00065   0.00079  -0.00011  -0.00008  -0.00001
 147        3PX        -0.00006   0.00010  -0.00004   0.00001  -0.00001
 148        3PY         0.00006   0.00003  -0.00005   0.00002  -0.00000
 149        3PZ         0.00016  -0.00020   0.00010   0.00004  -0.00000
 150        4S         -0.00301  -0.00320   0.00065  -0.00016   0.00001
 151        4PX         0.00055   0.00006   0.00025   0.00006   0.00001
 152        4PY        -0.00039  -0.00059   0.00009  -0.00014  -0.00001
 153        4PZ        -0.00208   0.00230  -0.00010  -0.00024  -0.00001
 154        5XX        -0.00021  -0.00020  -0.00004  -0.00002  -0.00001
 155        5YY        -0.00020  -0.00023  -0.00004   0.00007  -0.00000
 156        5ZZ        -0.00013  -0.00012  -0.00003  -0.00003  -0.00000
 157        5XY         0.00000  -0.00001   0.00000  -0.00001  -0.00000
 158        5XZ        -0.00017   0.00009   0.00003   0.00001   0.00000
 159        5YZ         0.00001  -0.00006   0.00002   0.00002   0.00000
 160 18  P  1S         -0.00000  -0.00000   0.00002   0.00001   0.00000
 161        2S         -0.00003  -0.00001  -0.00003  -0.00010   0.00000
 162        2PX        -0.00000   0.00000  -0.00001   0.00002  -0.00000
 163        2PY         0.00000   0.00000   0.00001   0.00000   0.00000
 164        2PZ         0.00001   0.00000   0.00002  -0.00001  -0.00000
 165        3S         -0.00006  -0.00006   0.00096   0.00057   0.00001
 166        3PX         0.00006   0.00002   0.00012  -0.00019   0.00000
 167        3PY         0.00000   0.00001  -0.00011   0.00000  -0.00000
 168        3PZ        -0.00005  -0.00002  -0.00016   0.00011   0.00001
 169        4S          0.00059  -0.00044  -0.00417  -0.00240  -0.00004
 170        4PX        -0.00019  -0.00005  -0.00138   0.00212  -0.00003
 171        4PY        -0.00022   0.00018   0.00059  -0.00037   0.00002
 172        4PZ         0.00018   0.00017   0.00194  -0.00125   0.00002
 173        5XX        -0.00003   0.00001  -0.00025  -0.00009   0.00000
 174        5YY         0.00000  -0.00001  -0.00024  -0.00022   0.00000
 175        5ZZ        -0.00004  -0.00003  -0.00007  -0.00024   0.00000
 176        5XY        -0.00001   0.00003   0.00003  -0.00004  -0.00000
 177        5XZ        -0.00000   0.00005  -0.00005  -0.00007   0.00000
 178        5YZ         0.00002   0.00003  -0.00002   0.00004  -0.00000
 179 19  O  1S          0.99274   0.00105   0.00002  -0.00005  -0.00000
 180        2S          0.02563   0.00004   0.00002  -0.00010  -0.00000
 181        2PX         0.00039   0.00003   0.00000   0.00000   0.00000
 182        2PY        -0.00004  -0.00004   0.00001  -0.00002  -0.00000
 183        2PZ        -0.00061   0.00002  -0.00001   0.00001   0.00000
 184        3S          0.01256  -0.00013  -0.00010   0.00045   0.00001
 185        3PX         0.00041  -0.00008  -0.00002   0.00003  -0.00000
 186        3PY         0.00007   0.00017  -0.00003   0.00007   0.00000
 187        3PZ        -0.00033  -0.00030   0.00006  -0.00009  -0.00000
 188        4XX        -0.00813   0.00000   0.00002  -0.00008  -0.00000
 189        4YY        -0.00816   0.00002   0.00001  -0.00005  -0.00000
 190        4ZZ        -0.00815   0.00008   0.00002  -0.00006  -0.00000
 191        4XY         0.00000   0.00002   0.00000   0.00000   0.00000
 192        4XZ         0.00001  -0.00003   0.00001  -0.00001  -0.00000
 193        4YZ        -0.00000   0.00000   0.00001  -0.00001  -0.00000
 194 20  O  1S          0.00002   0.00003  -0.00165   0.99274   0.00000
 195        2S         -0.00002  -0.00009  -0.00003   0.02562   0.00000
 196        2PX         0.00002   0.00001   0.00001   0.00064  -0.00000
 197        2PY         0.00004   0.00004  -0.00001  -0.00022   0.00000
 198        2PZ         0.00000   0.00003   0.00006  -0.00027   0.00000
 199        3S         -0.00001   0.00039  -0.00010   0.01258  -0.00001
 200        3PX        -0.00007   0.00000   0.00014   0.00041   0.00000
 201        3PY        -0.00012  -0.00016  -0.00003  -0.00030  -0.00000
 202        3PZ        -0.00000  -0.00013  -0.00039  -0.00010  -0.00000
 203        4XX        -0.00003  -0.00007   0.00009  -0.00814   0.00000
 204        4YY         0.00000  -0.00007   0.00005  -0.00814   0.00000
 205        4ZZ        -0.00005  -0.00008   0.00005  -0.00815   0.00000
 206        4XY         0.00001   0.00000  -0.00000  -0.00001  -0.00000
 207        4XZ        -0.00001  -0.00001  -0.00004   0.00001  -0.00000
 208        4YZ        -0.00000   0.00003   0.00003   0.00000  -0.00000
 209 21  O  1S         -0.00104   0.99273  -0.00008  -0.00008   0.00000
 210        2S         -0.00003   0.02558  -0.00004  -0.00008   0.00000
 211        2PX         0.00006   0.00025  -0.00002  -0.00000   0.00000
 212        2PY        -0.00003  -0.00022  -0.00004  -0.00005  -0.00000
 213        2PZ        -0.00003   0.00065  -0.00000  -0.00002   0.00000
 214        3S         -0.00003   0.01279   0.00011   0.00031  -0.00002
 215        3PX        -0.00021   0.00041   0.00006   0.00002  -0.00001
 216        3PY         0.00009  -0.00010   0.00013   0.00016   0.00000
 217        3PZ         0.00037   0.00043   0.00002   0.00014  -0.00000
 218        4XX        -0.00000  -0.00816  -0.00005  -0.00009   0.00000
 219        4YY         0.00004  -0.00818  -0.00004  -0.00005   0.00000
 220        4ZZ         0.00010  -0.00818  -0.00005  -0.00005   0.00000
 221        4XY         0.00001  -0.00001   0.00003   0.00001   0.00000
 222        4XZ         0.00002   0.00002   0.00002   0.00002  -0.00000
 223        4YZ        -0.00001  -0.00000  -0.00000   0.00001   0.00000
 224 22  O  1S         -0.00001   0.00003   0.99272   0.00169  -0.00000
 225        2S          0.00002  -0.00012   0.02553   0.00013  -0.00001
 226        2PX        -0.00002   0.00002  -0.00019   0.00007  -0.00000
 227        2PY        -0.00001   0.00002  -0.00004  -0.00002   0.00000
 228        2PZ         0.00000  -0.00000   0.00068   0.00003  -0.00000
 229        3S         -0.00009   0.00056   0.01305  -0.00045   0.00005
 230        3PX         0.00007  -0.00008   0.00000  -0.00041   0.00000
 231        3PY         0.00005  -0.00008  -0.00025   0.00010  -0.00000
 232        3PZ        -0.00002   0.00009   0.00065   0.00003   0.00001
 233        4XX         0.00001  -0.00008  -0.00820   0.00007  -0.00001
 234        4YY         0.00002  -0.00009  -0.00820   0.00007  -0.00001
 235        4ZZ         0.00002  -0.00008  -0.00819   0.00010  -0.00001
 236        4XY        -0.00001   0.00002  -0.00000   0.00002   0.00000
 237        4XZ         0.00000  -0.00001   0.00002  -0.00005   0.00000
 238        4YZ         0.00000  -0.00000  -0.00001   0.00001  -0.00000
[...]
 181         V                 1.838257          3.095694
 182         V                 1.849419          3.045271
 183         V                 1.860351          2.995363
 184         V                 1.860586          2.874900
 185         V                 1.866289          2.953781
 186         V                 1.881293          2.951273
 187         V                 1.893167          3.106731
 188         V                 1.901548          3.031881
 189         V                 1.906295          3.065100
 190         V                 1.912537          3.070195
 191         V                 1.928940          3.184601
 192         V                 1.931475          3.059221
 193         V                 1.943782          3.045536
 194         V                 1.955165          3.228541
 195         V                 1.972498          3.265521
 196         V                 1.982927          3.218185
 197         V                 2.016479          3.336793
 198         V                 2.044191          3.264820
 199         V                 2.055639          3.544124
 200         V                 2.062529          2.972758
 201         V                 2.070188          3.176627
 202         V                 2.087671          3.581491
 203         V                 2.110470          3.288880
 204         V                 2.139002          3.423188
 205         V                 2.149596          3.366486
 206         V                 2.159782          3.363633
 207         V                 2.177450          3.400814
 208         V                 2.207627          3.451999
 209         V                 2.215305          3.350862
 210         V                 2.223022          3.576842
 211         V                 2.245300          3.234529
 212         V                 2.248763          3.458298
 213         V                 2.265350          3.341240
 214         V                 2.281236          3.374261
 215         V                 2.299143          3.456283
 216         V                 2.315240          3.550070
 217         V                 2.329559          3.271316
 218         V                 2.348311          3.592681
 219         V                 2.378383          3.691289
 220         V                 2.390285          3.664131
 221         V                 2.411226          3.531941
 222         V                 2.435332          3.627623
 223         V                 2.444317          3.531140
 224         V                 2.477248          3.780296
 225         V                 2.502328          3.818876
 226         V                 2.539945          4.130961
 227         V                 2.544148          4.005499
 228         V                 2.551391          4.417042
 229         V                 2.589526          3.923044
 230         V                 2.654935          3.623256
 231         V                 2.670765          3.616696
 232         V                 2.684735          3.746377
 233         V                 2.696128          3.743405
 234         V                 2.707092          3.982245
 235         V                 2.726795          3.883862
 236         V                 2.729926          3.799313
 237         V                 2.739356          3.802775
 238         V                 2.770064          3.855780
 239         V                 2.803033          4.185986
 240         V                 2.809191          3.879906
 241         V                 2.820657          4.378411
 242         V                 2.842261          4.397423
 243         V                 2.858449          4.276621
 244         V                 2.868354          4.301320
 245         V                 2.885317          4.440548
 246         V                 2.895185          4.597101
 247         V                 2.917615          4.122160
 248         V                 2.924305          4.031461
 249         V                 2.979081          4.096408
 250         V                 2.990603          4.273351
 251         V                 2.999813          4.207145
 252         V                 3.042264          4.601874
 253         V                 3.198403          5.520596
 254         V                 3.280491          5.029361
 255         V                 3.306325          5.042700
 256         V                 3.320948          5.013667
 257         V                 3.392316          5.570274
 258         V                 3.408834          6.140615
 259         V                 3.423781          6.126097
 260         V                 3.454057          5.194068
 261         V                 3.470704          5.320769
 262         V                 3.516682          6.588888
 263         V                 3.554767          7.212778
 264         V                 3.565057          7.950599
 265         V                 3.594317          5.578498
 266         V                 3.610774          9.902556
 267         V                 3.856462          9.763650
 268         V                 3.929221          9.965420
 269         V                 3.968367          9.826510
 270         V                 4.015183         10.414471
 271         V                 4.052157         10.583673
 272         V                 4.115468          9.807147
 273         V                 4.159230         10.415106
 274         V                 4.249449         10.740802
 275         V                 4.360727         10.294128
 276         V                 4.469955         10.544052
 277         V                 4.579703         10.309918
 278         V                 4.756526         10.569590
 Total kinetic energy from orbitals= 1.415282989159D+03
                          Isotropic Fermi Contact Couplings
        Atom                 a.u.       MegaHertz       Gauss      10(-4) cm-1
     1  C(13)              0.01836      20.63914       7.36456       6.88448
     2  C(13)              0.02402      26.99774       9.63347       9.00548
     3  H(1)              -0.00178      -7.95632      -2.83901      -2.65394
     4  H(1)              -0.00178      -7.93579      -2.83169      -2.64709
     5  C(13)              0.01779      20.00382       7.13786       6.67255
     6  H(1)               0.00040       1.78181       0.63579       0.59435
     7  H(1)               0.00034       1.52360       0.54366       0.50822
     8  H(1)              -0.00026      -1.15532      -0.41225      -0.38537
     9  H(1)              -0.00022      -1.00097      -0.35717      -0.33389
    10  N(14)              1.39431     450.50684     160.75204     150.27291
    11  H(1)               0.00763      34.12421      12.17637      11.38261
    12  H(1)               0.00648      28.96944      10.33702       9.66316
    13  H(1)               0.00641      28.66269      10.22756       9.56085
    14  C(13)             -0.00032      -0.36297      -0.12952      -0.12107
    15  O(17)              0.00005      -0.03016      -0.01076      -0.01006
    16  H(1)               0.00001       0.03027       0.01080       0.01010
    17  P(31)              0.00085       1.53846       0.54896       0.51317
    18  P(31)             -0.00002      -0.04380      -0.01563      -0.01461
    19  O(17)              0.00016      -0.09579      -0.03418      -0.03195
    20  O(17)              0.00009      -0.05537      -0.01976      -0.01847
    21  O(17)              0.00004      -0.02422      -0.00864      -0.00808
    22  O(17)              0.00003      -0.01524      -0.00544      -0.00508
    23  O(17)              0.00001      -0.00511      -0.00182      -0.00170
    24  H(1)               0.00000       0.01634       0.00583       0.00545
    25  O(17)              0.00023      -0.14209      -0.05070      -0.04740
    26  H(1)              -0.00001      -0.02331      -0.00832      -0.00777
 --------------------------------------------------------
       Center         ----  Spin Dipole Couplings  ----
                      3XX-RR        3YY-RR        3ZZ-RR
 --------------------------------------------------------
     1   Atom        0.015995     -0.008360     -0.007635
     2   Atom       -0.005485      0.004562      0.000923
     3   Atom        0.000273      0.002993     -0.003266
     4   Atom        0.001592     -0.005230      0.003638
     5   Atom        0.011529     -0.005837     -0.005692
     6   Atom        0.004318     -0.004627      0.000310
     7   Atom        0.005125     -0.000638     -0.004487
     8   Atom        0.002018     -0.002254      0.000236
     9   Atom        0.002271     -0.000044     -0.002227
    10   Atom        0.078383     -0.041323     -0.037060
    11   Atom       -0.001587      0.004666     -0.003079
    12   Atom       -0.029275      0.047810     -0.018535
    13   Atom       -0.027567     -0.021306      0.048873
    14   Atom        0.002276     -0.001420     -0.000856
    15   Atom        0.001381     -0.001348     -0.000033
    16   Atom        0.001045     -0.000669     -0.000376
    17   Atom        0.000736      0.000085     -0.000821
    18   Atom        0.001103     -0.000269     -0.000834
    19   Atom        0.000911     -0.000219     -0.000692
    20   Atom        0.000567     -0.000138     -0.000430
    21   Atom        0.000367     -0.000146     -0.000221
    22   Atom        0.000929     -0.000300     -0.000630
    23   Atom        0.000539      0.000770     -0.001309
    24   Atom        0.000896      0.000403     -0.001299
    25   Atom        0.001132     -0.000602     -0.000530
    26   Atom        0.000689     -0.000294     -0.000395
 --------------------------------------------------------
                        XY            XZ            YZ
 --------------------------------------------------------
     1   Atom        0.037209      0.037942      0.028112
     2   Atom       -0.001542     -0.001085      0.012300
     3   Atom       -0.000927      0.006410     -0.005046
     4   Atom        0.006136     -0.002177     -0.003621
     5   Atom        0.007839      0.007828      0.002979
     6   Atom       -0.002506      0.000560     -0.004457
     7   Atom        0.000665     -0.002353     -0.004636
     8   Atom        0.000368      0.002271      0.000123
     9   Atom        0.002029      0.000529      0.000122
    10   Atom        0.052659      0.057101      0.020703
    11   Atom       -0.030479     -0.026685      0.023569
    12   Atom       -0.007524     -0.000341     -0.023184
    13   Atom        0.000855     -0.014272     -0.017364
    14   Atom       -0.000285     -0.000683      0.000146
    15   Atom        0.000118     -0.000489      0.000520
    16   Atom       -0.000028     -0.000562      0.000011
    17   Atom        0.000953      0.000529      0.000617
    18   Atom       -0.000892      0.000124      0.000011
    19   Atom        0.000829     -0.000512     -0.000322
    20   Atom       -0.000463     -0.000033      0.000002
    21   Atom       -0.000238      0.000009      0.000447
    22   Atom       -0.000533      0.000546     -0.000373
    23   Atom       -0.000840     -0.000392     -0.000409
    24   Atom       -0.001802     -0.000073     -0.000061
    25   Atom        0.000779     -0.000511     -0.000159
    26   Atom        0.000546      0.000286      0.000165
 --------------------------------------------------------


 ---------------------------------------------------------------------------------
              Anisotropic Spin Dipole Couplings in Principal Axis System
 ---------------------------------------------------------------------------------

       Atom             a.u.   MegaHertz   Gauss  10(-4) cm-1        Axes

              Baa    -0.0361    -4.848    -1.730    -1.617 -0.0910 -0.6457  0.7582
     1 C(13)  Bbb    -0.0351    -4.711    -1.681    -1.572  0.7149 -0.5724 -0.4016
              Bcc     0.0712     9.559     3.411     3.189  0.6933  0.5055  0.5137
 
              Baa    -0.0097    -1.302    -0.464    -0.434 -0.0455 -0.6552  0.7540
     2 C(13)  Bbb    -0.0056    -0.758    -0.270    -0.253  0.9949  0.0381  0.0931
              Bcc     0.0153     2.059     0.735     0.687 -0.0897  0.7545  0.6502
 
              Baa    -0.0092    -4.914    -1.754    -1.639 -0.5154  0.2937  0.8050
     3 H(1)   Bbb     0.0009     0.488     0.174     0.163  0.6759  0.7168  0.1713
              Bcc     0.0083     4.427     1.580     1.477 -0.5267  0.6324 -0.5680
 
              Baa    -0.0092    -4.899    -1.748    -1.634 -0.4621  0.8709  0.1675
     4 H(1)   Bbb     0.0009     0.466     0.166     0.155  0.6332  0.1918  0.7498
              Bcc     0.0083     4.433     1.582     1.479 -0.6208 -0.4526  0.6401
 
              Baa    -0.0089    -1.189    -0.424    -0.396 -0.4101  0.8959  0.1707
     5 C(13)  Bbb    -0.0087    -1.168    -0.417    -0.390 -0.2460 -0.2889  0.9252
              Bcc     0.0176     2.356     0.841     0.786  0.8783  0.3374  0.3389
 
              Baa    -0.0076    -4.032    -1.439    -1.345  0.1597  0.8637  0.4780
     6 H(1)   Bbb     0.0019     0.990     0.353     0.330 -0.5215 -0.3373  0.7838
              Bcc     0.0057     3.042     1.086     1.015  0.8382 -0.3744  0.3966
 
              Baa    -0.0078    -4.153    -1.482    -1.385  0.1253  0.5318  0.8375
     7 H(1)   Bbb     0.0016     0.831     0.297     0.277 -0.4343  0.7884 -0.4357
              Bcc     0.0062     3.322     1.185     1.108  0.8920  0.3091 -0.3298
 
              Baa    -0.0023    -1.221    -0.436    -0.407 -0.1130  0.9922  0.0535
     8 H(1)   Bbb    -0.0013    -0.694    -0.248    -0.232 -0.5532 -0.1075  0.8261
              Bcc     0.0036     1.916     0.684     0.639  0.8254  0.0638  0.5610
 
              Baa    -0.0023    -1.226    -0.437    -0.409 -0.1506  0.0825  0.9851
     9 H(1)   Bbb    -0.0012    -0.640    -0.228    -0.213 -0.4827  0.8635 -0.1461
              Bcc     0.0035     1.866     0.666     0.622  0.8628  0.4975  0.0903
 
              Baa    -0.0616    -2.376    -0.848    -0.793 -0.4712  0.7509  0.4628
    10 N(14)  Bbb    -0.0599    -2.310    -0.824    -0.771 -0.1167 -0.5732  0.8111
              Bcc     0.1215     4.686     1.672     1.563  0.8743  0.3282  0.3577
 
              Baa    -0.0311   -16.575    -5.915    -5.529  0.8074  0.4070  0.4271
    11 H(1)   Bbb    -0.0231   -12.305    -4.391    -4.105 -0.0475 -0.6767  0.7347
              Bcc     0.0541    28.880    10.305     9.633 -0.5881  0.6135  0.5271
 
              Baa    -0.0311   -16.604    -5.925    -5.538  0.8959  0.2017  0.3958
    12 H(1)   Bbb    -0.0246   -13.114    -4.679    -4.374 -0.4364  0.2330  0.8691
              Bcc     0.0557    29.718    10.604     9.913 -0.0830  0.9513 -0.2967
 
              Baa    -0.0310   -16.527    -5.897    -5.513  0.9076  0.3463  0.2375
    13 H(1)   Bbb    -0.0244   -12.995    -4.637    -4.335 -0.3850  0.9121  0.1412
              Bcc     0.0553    29.522    10.534     9.848 -0.1677 -0.2196  0.9611
 
              Baa    -0.0015    -0.196    -0.070    -0.065  0.0397  0.9806 -0.1917
    14 C(13)  Bbb    -0.0010    -0.132    -0.047    -0.044  0.2167  0.1788  0.9597
              Bcc     0.0024     0.328     0.117     0.109  0.9754 -0.0797 -0.2054
 
              Baa    -0.0016     0.113     0.040     0.038 -0.0958  0.9320 -0.3495
    15 O(17)  Bbb     0.0000    -0.001    -0.001    -0.000  0.2875  0.3620  0.8867
              Bcc     0.0015    -0.111    -0.040    -0.037  0.9530 -0.0156 -0.3027
 
              Baa    -0.0007    -0.357    -0.127    -0.119  0.0104  0.9998 -0.0186
    16 H(1)   Bbb    -0.0006    -0.305    -0.109    -0.102  0.3288  0.0141  0.9443
              Bcc     0.0012     0.662     0.236     0.221  0.9443 -0.0159 -0.3286
 
              Baa    -0.0011    -0.245    -0.088    -0.082 -0.0376 -0.4278  0.9031
    17 P(31)  Bbb    -0.0005    -0.115    -0.041    -0.039 -0.6494  0.6974  0.3033
              Bcc     0.0017     0.361     0.129     0.120  0.7595  0.5751  0.3040
 
              Baa    -0.0009    -0.187    -0.067    -0.062 -0.2048 -0.3235  0.9238
    18 P(31)  Bbb    -0.0007    -0.147    -0.053    -0.049  0.3921  0.8376  0.3803
              Bcc     0.0015     0.335     0.119     0.112  0.8968 -0.4401  0.0447
 
              Baa    -0.0009     0.063     0.022     0.021  0.1320  0.3008  0.9445
    19 O(17)  Bbb    -0.0006     0.047     0.017     0.016 -0.5097  0.8378 -0.1956
              Bcc     0.0015    -0.110    -0.039    -0.037  0.8502  0.4555 -0.2639
 
              Baa    -0.0004     0.031     0.011     0.010  0.1104  0.1677  0.9796
    20 O(17)  Bbb    -0.0004     0.026     0.009     0.009  0.4305  0.8803 -0.1992
              Bcc     0.0008    -0.058    -0.021    -0.019  0.8958 -0.4437 -0.0250
 
              Baa    -0.0007     0.048     0.017     0.016 -0.1663 -0.6896  0.7049
    21 O(17)  Bbb     0.0002    -0.011    -0.004    -0.004  0.5537  0.5262  0.6454
              Bcc     0.0005    -0.037    -0.013    -0.012  0.8160 -0.4976 -0.2943
 
              Baa    -0.0009     0.065     0.023     0.022 -0.1400  0.4321  0.8909
    22 O(17)  Bbb    -0.0004     0.032     0.011     0.011  0.4532  0.8279 -0.3303
              Bcc     0.0013    -0.097    -0.035    -0.032  0.8803 -0.3575  0.3118
 
              Baa    -0.0015     0.112     0.040     0.037  0.2804  0.2649  0.9226
    23 O(17)  Bbb     0.0000    -0.003    -0.001    -0.001  0.7043  0.5962 -0.3853
              Bcc     0.0015    -0.109    -0.039    -0.036 -0.6521  0.7579 -0.0194
 
              Baa    -0.0013    -0.720    -0.257    -0.240  0.3078  0.3475  0.8857
    24 H(1)   Bbb    -0.0011    -0.597    -0.213    -0.199  0.5808  0.6687 -0.4642
              Bcc     0.0025     1.317     0.470     0.439  0.7536 -0.6573 -0.0040
 
              Baa    -0.0009     0.065     0.023     0.022 -0.3834  0.9135 -0.1359
    25 O(17)  Bbb    -0.0007     0.048     0.017     0.016  0.1786  0.2177  0.9595
              Bcc     0.0016    -0.113    -0.040    -0.038  0.9061  0.3436 -0.2466
 
              Baa    -0.0006    -0.294    -0.105    -0.098 -0.2979  0.8755 -0.3804
    26 H(1)   Bbb    -0.0005    -0.244    -0.087    -0.082 -0.3520  0.2697  0.8963
              Bcc     0.0010     0.539     0.192     0.180  0.8873  0.4009  0.2278
 

 ---------------------------------------------------------------------------------


 Test job not archived.
 1\1\GINC-BATAGIN1\SP\UB3LYP\6-31G(d,p)\C4H12N1O7P2(2-,2)\ORISON\08-Feb
 -2021\0\\#t B3LYP/6-31G(d,p) scrf=(solvent=water) # Gfinput IOP(6/7=3)
  Pop=hirshfeld Density Test # Units(Ang,Deg)\\ale-1p-2dp-opt-g09.log\\
 -2,2\C,0,-3.42399,-1.08266,0.43204\C,0,-2.28545,-0.29034,-0.19446\H,0,
 -3.3668,-2.14776,0.20111\H,0,-3.46679,-0.95978,1.51567\C,0,-0.92959,-0
 .78613,0.33085\H,0,-2.30609,-0.40779,-1.28332\H,0,-2.41432,0.77354,0.0
 1847\H,0,-0.87426,-0.63401,1.414\H,0,-0.86396,-1.86337,0.14587\N,0,-4.
 76242,-0.60922,-0.09646\H,0,-5.54037,-1.12217,0.3271\H,0,-4.9084,0.385
 87,0.09734\H,0,-4.8269,-0.73535,-1.11066\C,0,0.29961,-0.11832,-0.31289
 \O,0,0.17564,-0.20847,-1.74717\H,0,1.09783,-0.37767,-2.03475\P,0,1.888
 23,-1.06283,0.09774\P,0,0.49297,1.68565,0.18927\O,0,2.6849,-1.01217,-1
 .19768\O,0,1.80035,2.21563,-0.35752\O,0,2.4832,-0.66965,1.42985\O,0,0.
 11661,1.87603,1.6478\O,0,-0.73545,2.41292,-0.70251\H,0,-1.32767,2.8135
 7,-0.05048\O,0,1.38012,-2.65142,0.2312\H,0,1.21027,-2.84097,1.16485\\V
 ersion=EM64L-G16RevA.03\State=2-A\HF=-1423.9789074\S2=0.750908\S2-1=0.
 \S2A=0.750001\RMSD=6.118e-09\Dipole=-5.8145248,-2.5819473,0.3492093\Qu
 adrupole=-14.524874,4.8884992,9.6363748,-1.3797664,-2.4001496,-5.95902
 75\PG=C01 [X(C4H12N1O7P2)]\\@


 IF YOU DON'T HAVE THE LAW - ARGUE THE FACTS.
 IF YOU DON'T HAVE THE FACTS - ARGUE THE LAW.
 IF YOU DON'T HAVE EITHER - POUND THE TABLE.
 Job cpu time:       0 days  0 hours 18 minutes 42.3 seconds.
 Elapsed time:       0 days  0 hours  2 minutes 20.7 seconds.
 File lengths (MBytes):  RWF=    150 Int=      0 D2E=      0 Chk=      7 Scr=      1
 Normal termination of Gaussian 16 at Mon Feb  8 14:32:31 2021.
