 Entering Gaussian System, Link 0=g16
 Input=ale-1p-2dp_cation_scf_g09.com
 Output=ale-1p-2dp_cation_scf_g09.log
 Initial command:
 /opt/g16//g16/l1.exe "/home/orison/scrgauss/Gau-13585.inp" -scrdir="/home/orison/scrgauss/"
 Entering Link 1 = /opt/g16//g16/l1.exe PID=     13587.
  
 Copyright (c) 1988,1990,1992,1993,1995,1998,2003,2009,2016,
            Gaussian, Inc.  All Rights Reserved.
  
 This is part of the Gaussian(R) 16 program.  It is based on
 the Gaussian(R) 09 system (copyright 2009, Gaussian, Inc.),
 the Gaussian(R) 03 system (copyright 2003, Gaussian, Inc.),
 the Gaussian(R) 98 system (copyright 1998, Gaussian, Inc.),
 the Gaussian(R) 94 system (copyright 1995, Gaussian, Inc.),
 the Gaussian 92(TM) system (copyright 1992, Gaussian, Inc.),
 the Gaussian 90(TM) system (copyright 1990, Gaussian, Inc.),
 the Gaussian 88(TM) system (copyright 1988, Gaussian, Inc.),
 the Gaussian 86(TM) system (copyright 1986, Carnegie Mellon
 University), and the Gaussian 82(TM) system (copyright 1983,
 Carnegie Mellon University). Gaussian is a federally registered
 trademark of Gaussian, Inc.
  
 This software contains proprietary and confidential information,
 including trade secrets, belonging to Gaussian, Inc.
  
 This software is provided under written license and may be
 used, copied, transmitted, or stored only in accord with that
 written license.
  
 The following legend is applicable only to US Government
 contracts under FAR:
  
                    RESTRICTED RIGHTS LEGEND
  
 Use, reproduction and disclosure by the US Government is
 subject to restrictions as set forth in subparagraphs (a)
 and (c) of the Commercial Computer Software - Restricted
 Rights clause in FAR 52.227-19.
  
 Gaussian, Inc.
 340 Quinnipiac St., Bldg. 40, Wallingford CT 06492
  
  
 ---------------------------------------------------------------
 Warning -- This program may not be used in any manner that
 competes with the business of Gaussian, Inc. or will provide
 assistance to any competitor of Gaussian, Inc.  The licensee
 of this program is prohibited from giving any competitor of
 Gaussian, Inc. access to this program.  By using this program,
 the user acknowledges that Gaussian, Inc. is engaged in the
 business of creating and licensing software in the field of
 computational chemistry and represents and warrants to the
 licensee that it is not a competitor of Gaussian, Inc. and that
 it will not use this program in any manner prohibited above.
 ---------------------------------------------------------------
  

 Cite this work as:
 Gaussian 16, Revision A.03,
 M. J. Frisch, G. W. Trucks, H. B. Schlegel, G. E. Scuseria, 
 M. A. Robb, J. R. Cheeseman, G. Scalmani, V. Barone, 
 G. A. Petersson, H. Nakatsuji, X. Li, M. Caricato, A. V. Marenich, 
 J. Bloino, B. G. Janesko, R. Gomperts, B. Mennucci, H. P. Hratchian, 
 J. V. Ortiz, A. F. Izmaylov, J. L. Sonnenberg, D. Williams-Young, 
 F. Ding, F. Lipparini, F. Egidi, J. Goings, B. Peng, A. Petrone, 
 T. Henderson, D. Ranasinghe, V. G. Zakrzewski, J. Gao, N. Rega, 
 G. Zheng, W. Liang, M. Hada, M. Ehara, K. Toyota, R. Fukuda, 
 J. Hasegawa, M. Ishida, T. Nakajima, Y. Honda, O. Kitao, H. Nakai, 
 T. Vreven, K. Throssell, J. A. Montgomery, Jr., J. E. Peralta, 
 F. Ogliaro, M. J. Bearpark, J. J. Heyd, E. N. Brothers, K. N. Kudin, 
 V. N. Staroverov, T. A. Keith, R. Kobayashi, J. Normand, 
 K. Raghavachari, A. P. Rendell, J. C. Burant, S. S. Iyengar, 
 J. Tomasi, M. Cossi, J. M. Millam, M. Klene, C. Adamo, R. Cammi, 
 J. W. Ochterski, R. L. Martin, K. Morokuma, O. Farkas, 
 J. B. Foresman, and D. J. Fox, Gaussian, Inc., Wallingford CT, 2016.
 
 ******************************************
 Gaussian 16:  EM64L-G16RevA.03 25-Dec-2016
                 8-Feb-2021 
 ******************************************
 %nproc=8
 Will use up to    8 processors via shared memory.
 %Mem=4GB
 ----------------------------------------------------------------------
 #t B3LYP/6-31G(d,p) scrf=(solvent=water) # Gfinput IOP(6/7=3) Pop=hirs
 hfeld Density Test # Units(Ang,Deg)
 ----------------------------------------------------------------------
 ----------------------
 ale-1p-2dp-opt-g09.log
 ----------------------
 Symbolic Z-matrix:
 Charge =  0 Multiplicity = 2
 C                    -3.42399  -1.08266   0.43204 
 C                    -2.28545  -0.29034  -0.19446 
 H                    -3.3668   -2.14776   0.20111 
 H                    -3.46679  -0.95978   1.51567 
 C                    -0.92959  -0.78613   0.33085 
 H                    -2.30609  -0.40779  -1.28332 
 H                    -2.41432   0.77354   0.01847 
 H                    -0.87426  -0.63401   1.414 
 H                    -0.86396  -1.86337   0.14587 
 N                    -4.76242  -0.60922  -0.09646 
 H                    -5.54037  -1.12217   0.3271 
 H                    -4.9084    0.38587   0.09734 
 H                    -4.8269   -0.73535  -1.11066 
 C                     0.29961  -0.11832  -0.31289 
 O                     0.17564  -0.20847  -1.74717 
 H                     1.09783  -0.37767  -2.03475 
 P                     1.88823  -1.06283   0.09774 
 P                     0.49297   1.68565   0.18927 
 O                     2.6849   -1.01217  -1.19768 
 O                     1.80035   2.21563  -0.35752 
 O                     2.4832   -0.66965   1.42985 
 O                     0.11661   1.87603   1.6478 
 O                    -0.73545   2.41292  -0.70251 
 H                    -1.32767   2.81357  -0.05048 
 O                     1.38012  -2.65142   0.2312 
 H                     1.21027  -2.84097   1.16485 
 
                    Distance matrix (angstroms):
                    1          2          3          4          5
     1  C    0.000000
     2  C    1.522021   0.000000
     3  H    1.091347   2.185361   0.000000
     4  H    1.091414   2.183634   1.774644   0.000000
     5  C    2.514001   1.536266   2.794792   2.805590   0.000000
     6  H    2.155832   1.095371   2.521137   3.079978   2.154864
     7  H    2.153126   1.092606   3.078079   2.520655   2.175908
     8  H    2.768873   2.167189   3.158369   2.614895   1.095178
     9  H    2.691683   2.147296   2.519551   3.076939   1.094975
    10  N    1.514877   2.499334   2.098430   2.097740   3.860632
    11  H    2.119348   3.399775   2.406681   2.395580   4.623011
    12  H    2.114729   2.724385   2.967588   2.429130   4.154400
    13  H    2.113931   2.737960   2.418168   2.966122   4.155665
    14  C    3.917916   2.593483   4.222012   4.270533   1.539904
    15  O    4.297732   2.911112   4.483918   4.947513   2.423508
    16  H    5.198934   3.852386   5.297661   5.812064   3.142186
    17  P    5.322765   4.254612   5.366852   5.540522   2.840953
    18  P    4.802609   3.430948   5.439945   4.943413   2.855419
    19  O    6.322934   5.121706   6.314210   6.723712   3.930908
    20  O    6.228631   4.795856   6.786065   6.429217   4.115457
    21  O    6.005089   5.051958   6.157687   5.957678   3.587270
    22  O    4.771558   3.722496   5.515246   4.571655   3.148966
    23  O    4.553518   3.157250   5.342315   4.873976   3.367409
    24  H    4.450617   3.251512   5.369930   4.611597   3.641665
    25  O    5.057748   4.380900   4.773660   5.291885   2.970521
    26  H    5.010492   4.535802   4.728520   5.053399   3.081708
                    6          7          8          9         10
     6  H    0.000000
     7  H    1.761224   0.000000
     8  H    3.062164   2.510077   0.000000
     9  H    2.498207   3.061559   1.766235   0.000000
    10  N    2.735465   2.727418   4.171318   4.102390   0.000000
    11  H    3.682982   3.668945   4.815832   4.738252   1.023585
    12  H    3.050924   2.525261   4.364405   4.628059   1.024243
    13  H    2.547860   3.061409   4.691220   4.307690   1.024045
    14  C    2.795568   2.875870   2.150827   2.146988   5.090380
    15  O    2.532562   3.284771   3.358031   2.720857   5.222057
    16  H    3.486004   4.228025   3.981046   3.288013   6.176821
    17  P    4.464160   4.678726   3.089948   2.866658   6.668930
    18  P    3.792855   3.051795   2.958057   3.799827   5.741707
    19  O    5.028180   5.538034   4.430745   3.888968   7.539074
    20  O    4.960069   4.470395   4.290952   4.897978   7.149677
    21  O    5.510641   5.297216   3.357687   3.778499   7.404882
    22  O    4.435851   3.205590   2.708650   4.147339   5.746638
    23  O    3.280344   2.454788   3.712501   4.361527   5.071204
    24  H    3.585298   2.312420   3.773074   4.703972   4.849238
    25  O    4.573378   5.115993   3.248259   2.379958   6.481415
    26  H    4.927341   5.245619   3.045983   2.509273   6.499587
                   11         12         13         14         15
    11  H    0.000000
    12  H    1.651169   0.000000
    13  H    1.651007   1.650164   0.000000
    14  C    5.960090   5.248415   5.224774   0.000000
    15  O    6.149001   5.440857   5.070321   1.442447   0.000000
    16  H    7.085077   6.419003   6.007021   1.915521   0.980696
    17  P    7.432377   6.949310   6.830845   1.893259   2.658306
    18  P    6.656128   5.556319   5.987660   1.882514   2.727304
    19  O    8.366129   7.828780   7.517403   2.696559   2.691516
    20  O    8.092947   6.968662   7.293555   2.775164   3.232193
    21  O    8.111628   7.584554   7.739255   2.847661   3.953603
    22  O    6.537192   5.465824   6.234316   2.802718   3.984275
    23  O    6.053446   4.707675   5.178625   2.762305   2.965314
    24  H    5.777496   4.328649   5.095432   3.363462   3.777754
    25  O    7.088087   6.984879   6.633175   2.807157   3.366411
    26  H    7.016213   6.999300   6.786678   3.228907   4.059603
                   16         17         18         19         20
    16  H    0.000000
    17  P    2.375224   0.000000
    18  P    3.093446   3.083711   0.000000
    19  O    1.903173   1.521632   3.742515   0.000000
    20  O    3.167308   3.311085   1.512977   3.450651   0.000000
    21  O    3.742720   1.510992   3.323777   2.657427   3.462054
    22  O    4.427542   3.765398   1.518289   4.799434   2.640382
    23  O    3.594881   4.427746   1.683214   4.865720   2.566753
    24  H    4.472627   5.038895   2.155090   5.661543   3.199424
    25  O    3.222446   1.673202   4.427072   2.535999   4.920504
    26  H    4.039546   2.181773   4.685783   3.331755   5.313662
                   21         22         23         24         25
    21  O    0.000000
    22  O    3.482634   0.000000
    23  O    4.940537   2.556993   0.000000
    24  H    5.370934   2.418487   0.967671   0.000000
    25  O    2.565338   4.909279   5.567314   6.105537   0.000000
    26  H    2.530851   4.866151   5.905609   6.316011   0.967719
                   26
    26  H    0.000000
 Framework group  C1[X(C4H12NO7P2)]
 Deg. of freedom    72
                         Standard orientation:                         
 ---------------------------------------------------------------------
 Center     Atomic      Atomic             Coordinates (Angstroms)
 Number     Number       Type             X           Y           Z
 ---------------------------------------------------------------------
      1          6           0        3.423991   -1.082659   -0.432039
      2          6           0        2.285451   -0.290339    0.194461
      3          1           0        3.366802   -2.147759   -0.201109
      4          1           0        3.466791   -0.959779   -1.515669
      5          6           0        0.929591   -0.786130   -0.330849
      6          1           0        2.306091   -0.407789    1.283321
      7          1           0        2.414320    0.773541   -0.018469
      8          1           0        0.874261   -0.634010   -1.413999
      9          1           0        0.863962   -1.863370   -0.145869
     10          7           0        4.762421   -0.609218    0.096461
     11          1           0        5.540371   -1.122167   -0.327099
     12          1           0        4.908400    0.385872   -0.097339
     13          1           0        4.826901   -0.735348    1.110661
     14          6           0       -0.299610   -0.118321    0.312891
     15          8           0       -0.175640   -0.208471    1.747171
     16          1           0       -1.097829   -0.377672    2.034751
     17         15           0       -1.888229   -1.062832   -0.097739
     18         15           0       -0.492971    1.685649   -0.189269
     19          8           0       -2.684899   -1.012173    1.197681
     20          8           0       -1.800351    2.215628    0.357521
     21          8           0       -2.483199   -0.669653   -1.429849
     22          8           0       -0.116611    1.876029   -1.647799
     23          8           0        0.735449    2.412919    0.702511
     24          1           0        1.327668    2.813570    0.050481
     25          8           0       -1.380118   -2.651422   -0.231199
     26          1           0       -1.210268   -2.840972   -1.164849
 ---------------------------------------------------------------------
 Rotational constants (GHZ):           0.7002410           0.4041208           0.3127936
 AO basis set in the form of general basis input (Overlap normalization):
      1 0
 S   6 1.00       0.000000000000
      0.3047524880D+04  0.1834737132D-02
      0.4573695180D+03  0.1403732281D-01
      0.1039486850D+03  0.6884262226D-01
      0.2921015530D+02  0.2321844432D+00
      0.9286662960D+01  0.4679413484D+00
      0.3163926960D+01  0.3623119853D+00
 SP   3 1.00       0.000000000000
      0.7868272350D+01 -0.1193324198D+00  0.6899906659D-01
      0.1881288540D+01 -0.1608541517D+00  0.3164239610D+00
      0.5442492580D+00  0.1143456438D+01  0.7443082909D+00
 SP   1 1.00       0.000000000000
      0.1687144782D+00  0.1000000000D+01  0.1000000000D+01
 D   1 1.00       0.000000000000
      0.8000000000D+00  0.1000000000D+01
 ****
      2 0
 S   6 1.00       0.000000000000
      0.3047524880D+04  0.1834737132D-02
      0.4573695180D+03  0.1403732281D-01
      0.1039486850D+03  0.6884262226D-01
      0.2921015530D+02  0.2321844432D+00
      0.9286662960D+01  0.4679413484D+00
      0.3163926960D+01  0.3623119853D+00
 SP   3 1.00       0.000000000000
      0.7868272350D+01 -0.1193324198D+00  0.6899906659D-01
      0.1881288540D+01 -0.1608541517D+00  0.3164239610D+00
      0.5442492580D+00  0.1143456438D+01  0.7443082909D+00
 SP   1 1.00       0.000000000000
      0.1687144782D+00  0.1000000000D+01  0.1000000000D+01
 D   1 1.00       0.000000000000
      0.8000000000D+00  0.1000000000D+01
 ****
      3 0
 S   3 1.00       0.000000000000
      0.1873113696D+02  0.3349460434D-01
      0.2825394365D+01  0.2347269535D+00
      0.6401216923D+00  0.8137573261D+00
 S   1 1.00       0.000000000000
      0.1612777588D+00  0.1000000000D+01
 P   1 1.00       0.000000000000
      0.1100000000D+01  0.1000000000D+01
 ****
      4 0
 S   3 1.00       0.000000000000
      0.1873113696D+02  0.3349460434D-01
      0.2825394365D+01  0.2347269535D+00
      0.6401216923D+00  0.8137573261D+00
 S   1 1.00       0.000000000000
      0.1612777588D+00  0.1000000000D+01
 P   1 1.00       0.000000000000
      0.1100000000D+01  0.1000000000D+01
 ****
      5 0
 S   6 1.00       0.000000000000
      0.3047524880D+04  0.1834737132D-02
      0.4573695180D+03  0.1403732281D-01
      0.1039486850D+03  0.6884262226D-01
      0.2921015530D+02  0.2321844432D+00
      0.9286662960D+01  0.4679413484D+00
      0.3163926960D+01  0.3623119853D+00
 SP   3 1.00       0.000000000000
      0.7868272350D+01 -0.1193324198D+00  0.6899906659D-01
      0.1881288540D+01 -0.1608541517D+00  0.3164239610D+00
      0.5442492580D+00  0.1143456438D+01  0.7443082909D+00
 SP   1 1.00       0.000000000000
      0.1687144782D+00  0.1000000000D+01  0.1000000000D+01
 D   1 1.00       0.000000000000
      0.8000000000D+00  0.1000000000D+01
 ****
      6 0
 S   3 1.00       0.000000000000
      0.1873113696D+02  0.3349460434D-01
      0.2825394365D+01  0.2347269535D+00
      0.6401216923D+00  0.8137573261D+00
 S   1 1.00       0.000000000000
      0.1612777588D+00  0.1000000000D+01
 P   1 1.00       0.000000000000
      0.1100000000D+01  0.1000000000D+01
 ****
      7 0
 S   3 1.00       0.000000000000
      0.1873113696D+02  0.3349460434D-01
      0.2825394365D+01  0.2347269535D+00
      0.6401216923D+00  0.8137573261D+00
 S   1 1.00       0.000000000000
      0.1612777588D+00  0.1000000000D+01
 P   1 1.00       0.000000000000
      0.1100000000D+01  0.1000000000D+01
 ****
      8 0
 S   3 1.00       0.000000000000
      0.1873113696D+02  0.3349460434D-01
      0.2825394365D+01  0.2347269535D+00
      0.6401216923D+00  0.8137573261D+00
 S   1 1.00       0.000000000000
      0.1612777588D+00  0.1000000000D+01
 P   1 1.00       0.000000000000
      0.1100000000D+01  0.1000000000D+01
 ****
      9 0
 S   3 1.00       0.000000000000
      0.1873113696D+02  0.3349460434D-01
      0.2825394365D+01  0.2347269535D+00
      0.6401216923D+00  0.8137573261D+00
 S   1 1.00       0.000000000000
      0.1612777588D+00  0.1000000000D+01
 P   1 1.00       0.000000000000
      0.1100000000D+01  0.1000000000D+01
 ****
     10 0
 S   6 1.00       0.000000000000
      0.4173511460D+04  0.1834772160D-02
      0.6274579110D+03  0.1399462700D-01
      0.1429020930D+03  0.6858655181D-01
      0.4023432930D+02  0.2322408730D+00
      0.1282021290D+02  0.4690699481D+00
      0.4390437010D+01  0.3604551991D+00
 SP   3 1.00       0.000000000000
      0.1162636186D+02 -0.1149611817D+00  0.6757974388D-01
      0.2716279807D+01 -0.1691174786D+00  0.3239072959D+00
      0.7722183966D+00  0.1145851947D+01  0.7408951398D+00
 SP   1 1.00       0.000000000000
      0.2120314975D+00  0.1000000000D+01  0.1000000000D+01
 D   1 1.00       0.000000000000
      0.8000000000D+00  0.1000000000D+01
 ****
     11 0
 S   3 1.00       0.000000000000
      0.1873113696D+02  0.3349460434D-01
      0.2825394365D+01  0.2347269535D+00
      0.6401216923D+00  0.8137573261D+00
 S   1 1.00       0.000000000000
      0.1612777588D+00  0.1000000000D+01
 P   1 1.00       0.000000000000
      0.1100000000D+01  0.1000000000D+01
 ****
     12 0
 S   3 1.00       0.000000000000
      0.1873113696D+02  0.3349460434D-01
      0.2825394365D+01  0.2347269535D+00
      0.6401216923D+00  0.8137573261D+00
 S   1 1.00       0.000000000000
      0.1612777588D+00  0.1000000000D+01
 P   1 1.00       0.000000000000
      0.1100000000D+01  0.1000000000D+01
 ****
     13 0
 S   3 1.00       0.000000000000
      0.1873113696D+02  0.3349460434D-01
      0.2825394365D+01  0.2347269535D+00
      0.6401216923D+00  0.8137573261D+00
 S   1 1.00       0.000000000000
      0.1612777588D+00  0.1000000000D+01
 P   1 1.00       0.000000000000
      0.1100000000D+01  0.1000000000D+01
 ****
     14 0
 S   6 1.00       0.000000000000
      0.3047524880D+04  0.1834737132D-02
      0.4573695180D+03  0.1403732281D-01
      0.1039486850D+03  0.6884262226D-01
      0.2921015530D+02  0.2321844432D+00
      0.9286662960D+01  0.4679413484D+00
      0.3163926960D+01  0.3623119853D+00
 SP   3 1.00       0.000000000000
      0.7868272350D+01 -0.1193324198D+00  0.6899906659D-01
      0.1881288540D+01 -0.1608541517D+00  0.3164239610D+00
      0.5442492580D+00  0.1143456438D+01  0.7443082909D+00
 SP   1 1.00       0.000000000000
      0.1687144782D+00  0.1000000000D+01  0.1000000000D+01
 D   1 1.00       0.000000000000
      0.8000000000D+00  0.1000000000D+01
 ****
     15 0
 S   6 1.00       0.000000000000
      0.5484671660D+04  0.1831074430D-02
      0.8252349460D+03  0.1395017220D-01
      0.1880469580D+03  0.6844507810D-01
      0.5296450000D+02  0.2327143360D+00
      0.1689757040D+02  0.4701928980D+00
      0.5799635340D+01  0.3585208530D+00
 SP   3 1.00       0.000000000000
      0.1553961625D+02 -0.1107775495D+00  0.7087426823D-01
      0.3599933586D+01 -0.1480262627D+00  0.3397528391D+00
      0.1013761750D+01  0.1130767015D+01  0.7271585773D+00
 SP   1 1.00       0.000000000000
      0.2700058226D+00  0.1000000000D+01  0.1000000000D+01
 D   1 1.00       0.000000000000
      0.8000000000D+00  0.1000000000D+01
 ****
     16 0
 S   3 1.00       0.000000000000
      0.1873113696D+02  0.3349460434D-01
      0.2825394365D+01  0.2347269535D+00
      0.6401216923D+00  0.8137573261D+00
 S   1 1.00       0.000000000000
      0.1612777588D+00  0.1000000000D+01
 P   1 1.00       0.000000000000
      0.1100000000D+01  0.1000000000D+01
 ****
     17 0
 S   6 1.00       0.000000000000
      0.1941330000D+05  0.1851598923D-02
      0.2909420000D+04  0.1420619174D-01
      0.6613640000D+03  0.6999945928D-01
      0.1857590000D+03  0.2400788603D+00
      0.5919430000D+02  0.4847617180D+00
      0.2003100000D+02  0.3351998050D+00
 SP   6 1.00       0.000000000000
      0.3394780000D+03 -0.2782170105D-02  0.4564616191D-02
      0.8101010000D+02 -0.3604990135D-01  0.3369357188D-01
      0.2587800000D+02 -0.1166310044D+00  0.1397548834D+00
      0.9452210000D+01  0.9683280364D-01  0.3393617168D+00
      0.3665660000D+01  0.6144180231D+00  0.4509206237D+00
      0.1467460000D+01  0.4037980152D+00  0.2385858009D+00
 SP   3 1.00       0.000000000000
      0.2156230000D+01 -0.2529241139D+00 -0.1776531273D-01
      0.7489970000D+00  0.3285184468D-01  0.2740581964D+00
      0.2831450000D+00  0.1081254762D+01  0.7854215630D+00
 SP   1 1.00       0.000000000000
      0.9983170000D-01  0.1000000000D+01  0.1000000000D+01
 D   1 1.00       0.000000000000
      0.5500000000D+00  0.1000000000D+01
 ****
     18 0
 S   6 1.00       0.000000000000
      0.1941330000D+05  0.1851598923D-02
      0.2909420000D+04  0.1420619174D-01
      0.6613640000D+03  0.6999945928D-01
      0.1857590000D+03  0.2400788603D+00
      0.5919430000D+02  0.4847617180D+00
      0.2003100000D+02  0.3351998050D+00
 SP   6 1.00       0.000000000000
      0.3394780000D+03 -0.2782170105D-02  0.4564616191D-02
      0.8101010000D+02 -0.3604990135D-01  0.3369357188D-01
      0.2587800000D+02 -0.1166310044D+00  0.1397548834D+00
      0.9452210000D+01  0.9683280364D-01  0.3393617168D+00
      0.3665660000D+01  0.6144180231D+00  0.4509206237D+00
      0.1467460000D+01  0.4037980152D+00  0.2385858009D+00
 SP   3 1.00       0.000000000000
      0.2156230000D+01 -0.2529241139D+00 -0.1776531273D-01
      0.7489970000D+00  0.3285184468D-01  0.2740581964D+00
      0.2831450000D+00  0.1081254762D+01  0.7854215630D+00
 SP   1 1.00       0.000000000000
      0.9983170000D-01  0.1000000000D+01  0.1000000000D+01
 D   1 1.00       0.000000000000
      0.5500000000D+00  0.1000000000D+01
 ****
     19 0
 S   6 1.00       0.000000000000
      0.5484671660D+04  0.1831074430D-02
      0.8252349460D+03  0.1395017220D-01
      0.1880469580D+03  0.6844507810D-01
      0.5296450000D+02  0.2327143360D+00
      0.1689757040D+02  0.4701928980D+00
      0.5799635340D+01  0.3585208530D+00
 SP   3 1.00       0.000000000000
      0.1553961625D+02 -0.1107775495D+00  0.7087426823D-01
      0.3599933586D+01 -0.1480262627D+00  0.3397528391D+00
      0.1013761750D+01  0.1130767015D+01  0.7271585773D+00
 SP   1 1.00       0.000000000000
      0.2700058226D+00  0.1000000000D+01  0.1000000000D+01
 D   1 1.00       0.000000000000
      0.8000000000D+00  0.1000000000D+01
 ****
     20 0
 S   6 1.00       0.000000000000
      0.5484671660D+04  0.1831074430D-02
      0.8252349460D+03  0.1395017220D-01
      0.1880469580D+03  0.6844507810D-01
      0.5296450000D+02  0.2327143360D+00
      0.1689757040D+02  0.4701928980D+00
      0.5799635340D+01  0.3585208530D+00
 SP   3 1.00       0.000000000000
      0.1553961625D+02 -0.1107775495D+00  0.7087426823D-01
      0.3599933586D+01 -0.1480262627D+00  0.3397528391D+00
      0.1013761750D+01  0.1130767015D+01  0.7271585773D+00
 SP   1 1.00       0.000000000000
      0.2700058226D+00  0.1000000000D+01  0.1000000000D+01
 D   1 1.00       0.000000000000
      0.8000000000D+00  0.1000000000D+01
 ****
     21 0
 S   6 1.00       0.000000000000
      0.5484671660D+04  0.1831074430D-02
      0.8252349460D+03  0.1395017220D-01
      0.1880469580D+03  0.6844507810D-01
      0.5296450000D+02  0.2327143360D+00
      0.1689757040D+02  0.4701928980D+00
      0.5799635340D+01  0.3585208530D+00
 SP   3 1.00       0.000000000000
      0.1553961625D+02 -0.1107775495D+00  0.7087426823D-01
      0.3599933586D+01 -0.1480262627D+00  0.3397528391D+00
      0.1013761750D+01  0.1130767015D+01  0.7271585773D+00
 SP   1 1.00       0.000000000000
      0.2700058226D+00  0.1000000000D+01  0.1000000000D+01
 D   1 1.00       0.000000000000
      0.8000000000D+00  0.1000000000D+01
 ****
     22 0
 S   6 1.00       0.000000000000
      0.5484671660D+04  0.1831074430D-02
      0.8252349460D+03  0.1395017220D-01
      0.1880469580D+03  0.6844507810D-01
      0.5296450000D+02  0.2327143360D+00
      0.1689757040D+02  0.4701928980D+00
      0.5799635340D+01  0.3585208530D+00
 SP   3 1.00       0.000000000000
      0.1553961625D+02 -0.1107775495D+00  0.7087426823D-01
      0.3599933586D+01 -0.1480262627D+00  0.3397528391D+00
      0.1013761750D+01  0.1130767015D+01  0.7271585773D+00
 SP   1 1.00       0.000000000000
      0.2700058226D+00  0.1000000000D+01  0.1000000000D+01
 D   1 1.00       0.000000000000
      0.8000000000D+00  0.1000000000D+01
 ****
     23 0
 S   6 1.00       0.000000000000
      0.5484671660D+04  0.1831074430D-02
      0.8252349460D+03  0.1395017220D-01
      0.1880469580D+03  0.6844507810D-01
      0.5296450000D+02  0.2327143360D+00
      0.1689757040D+02  0.4701928980D+00
      0.5799635340D+01  0.3585208530D+00
 SP   3 1.00       0.000000000000
      0.1553961625D+02 -0.1107775495D+00  0.7087426823D-01
      0.3599933586D+01 -0.1480262627D+00  0.3397528391D+00
      0.1013761750D+01  0.1130767015D+01  0.7271585773D+00
 SP   1 1.00       0.000000000000
      0.2700058226D+00  0.1000000000D+01  0.1000000000D+01
 D   1 1.00       0.000000000000
      0.8000000000D+00  0.1000000000D+01
 ****
     24 0
 S   3 1.00       0.000000000000
      0.1873113696D+02  0.3349460434D-01
      0.2825394365D+01  0.2347269535D+00
      0.6401216923D+00  0.8137573261D+00
 S   1 1.00       0.000000000000
      0.1612777588D+00  0.1000000000D+01
 P   1 1.00       0.000000000000
      0.1100000000D+01  0.1000000000D+01
 ****
     25 0
 S   6 1.00       0.000000000000
      0.5484671660D+04  0.1831074430D-02
      0.8252349460D+03  0.1395017220D-01
      0.1880469580D+03  0.6844507810D-01
      0.5296450000D+02  0.2327143360D+00
      0.1689757040D+02  0.4701928980D+00
      0.5799635340D+01  0.3585208530D+00
 SP   3 1.00       0.000000000000
      0.1553961625D+02 -0.1107775495D+00  0.7087426823D-01
      0.3599933586D+01 -0.1480262627D+00  0.3397528391D+00
      0.1013761750D+01  0.1130767015D+01  0.7271585773D+00
 SP   1 1.00       0.000000000000
      0.2700058226D+00  0.1000000000D+01  0.1000000000D+01
 D   1 1.00       0.000000000000
      0.8000000000D+00  0.1000000000D+01
 ****
     26 0
 S   3 1.00       0.000000000000
      0.1873113696D+02  0.3349460434D-01
      0.2825394365D+01  0.2347269535D+00
      0.6401216923D+00  0.8137573261D+00
 S   1 1.00       0.000000000000
      0.1612777588D+00  0.1000000000D+01
 P   1 1.00       0.000000000000
      0.1100000000D+01  0.1000000000D+01
 ****

   278 basis functions,   524 primitive gaussians,   278 cartesian basis functions
    65 alpha electrons       64 beta electrons
       nuclear repulsion energy      1348.5244384188 Hartrees.
 NAtoms=   26 NActive=   26 NUniq=   26 SFac= 1.00D+00 NAtFMM=   60 NAOKFM=F Big=F
 ------------------------------------------------------------------------------
 Polarizable Continuum Model (PCM)
 =================================
 Model                : PCM.
 Atomic radii         : UFF (Universal Force Field).
 Polarization charges : Total charges.
 Charge compensation  : None.
 Solution method      : On-the-fly selection.
 Cavity type          : Scaled VdW (van der Waals Surface) (Alpha=1.100).
 Cavity algorithm     : GePol (No added spheres)
                        Default sphere list used, NSphG=   26.
                        Lebedev-Laikov grids with approx.  5.0 points / Ang**2.
                        Smoothing algorithm: York/Karplus (Gamma=1.0000).
                        Polarization charges: spherical gaussians, with
                                              point-specific exponents (IZeta= 3).
                        Self-potential: point-specific (ISelfS= 7).
                        Self-field    : sphere-specific E.n sum rule (ISelfD= 2).
 Solvent              : Water, Eps=  78.355300 Eps(inf)=   1.777849
 ------------------------------------------------------------------------------
 ExpMin= 9.98D-02 ExpMax= 1.94D+04 ExpMxC= 2.91D+03 IAcc=3 IRadAn=         5 AccDes= 0.00D+00
 Harris functional with IExCor=  402 and IRadAn=       5 diagonalized for initial guess.
 HarFok:  IExCor=  402 AccDes= 0.00D+00 IRadAn=         5 IDoV= 1 UseB2=F ITyADJ=14
 ICtDFT=  3500011 ScaDFX=  1.000000  1.000000  1.000000  1.000000
 FoFCou: FMM=F IPFlag=           0 FMFlag=      100000 FMFlg1=           0
         NFxFlg=           0 DoJE=T BraDBF=F KetDBF=T FulRan=T
         wScrn=  0.000000 ICntrl=       500 IOpCl=  0 I1Cent=   200000004 NGrid=           0
         NMat0=    1 NMatS0=      1 NMatT0=    0 NMatD0=    1 NMtDS0=    0 NMtDT0=    0
 Petite list used in FoFCou.
 Initial guess <Sx>= 0.0000 <Sy>= 0.0000 <Sz>= 0.5000 <S**2>= 0.7500 S= 0.5000
 Inv3:  Mode=1 IEnd=    13242603.
 Iteration    1 A*A^-1 deviation from unit magnitude is 9.33D-15 for    276.
 Iteration    1 A*A^-1 deviation from orthogonality  is 6.34D-15 for   2012    832.
 Iteration    1 A^-1*A deviation from unit magnitude is 8.66D-15 for    276.
 Iteration    1 A^-1*A deviation from orthogonality  is 3.29D-15 for   1983    427.
 Restarting incremental Fock formation.
 Error on total polarization charges =  0.00488
 SCF Done:  E(UB3LYP) =  -1423.77581827     A.U. after   27 cycles
            NFock= 27  Conv=0.79D-08     -V/T= 2.0067
 <Sx>= 0.0000 <Sy>= 0.0000 <Sz>= 0.5000 <S**2>= 0.7545 S= 0.5023
 <L.S>= 0.000000000000E+00
 Annihilation of the first spin contaminant:
 S**2 before annihilation     0.7545,   after     0.7500

 **********************************************************************

            Population analysis using the SCF density.

 **********************************************************************

 Orbital symmetries:
 Alpha Orbitals:
       Occupied  (A) (A) (A) (A) (A) (A) (A) (A) (A) (A) (A) (A)
                 (A) (A) (A) (A) (A) (A) (A) (A) (A) (A) (A) (A)
                 (A) (A) (A) (A) (A) (A) (A) (A) (A) (A) (A) (A)
                 (A) (A) (A) (A) (A) (A) (A) (A) (A) (A) (A) (A)
                 (A) (A) (A) (A) (A) (A) (A) (A) (A) (A) (A) (A)
                 (A) (A) (A) (A) (A)
       Virtual   (A) (A) (A) (A) (A) (A) (A) (A) (A) (A) (A) (A)
                 (A) (A) (A) (A) (A) (A) (A) (A) (A) (A) (A) (A)
                 (A) (A) (A) (A) (A) (A) (A) (A) (A) (A) (A) (A)
                 (A) (A) (A) (A) (A) (A) (A) (A) (A) (A) (A) (A)
                 (A) (A) (A) (A) (A) (A) (A) (A) (A) (A) (A) (A)
                 (A) (A) (A) (A) (A) (A) (A) (A) (A) (A) (A) (A)
                 (A) (A) (A) (A) (A) (A) (A) (A) (A) (A) (A) (A)
                 (A) (A) (A) (A) (A) (A) (A) (A) (A) (A) (A) (A)
                 (A) (A) (A) (A) (A) (A) (A) (A) (A) (A) (A) (A)
                 (A) (A) (A) (A) (A) (A) (A) (A) (A) (A) (A) (A)
                 (A) (A) (A) (A) (A) (A) (A) (A) (A) (A) (A) (A)
                 (A) (A) (A) (A) (A) (A) (A) (A) (A) (A) (A) (A)
                 (A) (A) (A) (A) (A) (A) (A) (A) (A) (A) (A) (A)
                 (A) (A) (A) (A) (A) (A) (A) (A) (A) (A) (A) (A)
                 (A) (A) (A) (A) (A) (A) (A) (A) (A) (A) (A) (A)
                 (A) (A) (A) (A) (A) (A) (A) (A) (A) (A) (A) (A)
                 (A) (A) (A) (A) (A) (A) (A) (A) (A) (A) (A) (A)
                 (A) (A) (A) (A) (A) (A) (A) (A) (A)
 Beta  Orbitals:
       Occupied  (A) (A) (A) (A) (A) (A) (A) (A) (A) (A) (A) (A)
                 (A) (A) (A) (A) (A) (A) (A) (A) (A) (A) (A) (A)
                 (A) (A) (A) (A) (A) (A) (A) (A) (A) (A) (A) (A)
                 (A) (A) (A) (A) (A) (A) (A) (A) (A) (A) (A) (A)
                 (A) (A) (A) (A) (A) (A) (A) (A) (A) (A) (A) (A)
                 (A) (A) (A) (A)
       Virtual   (A) (A) (A) (A) (A) (A) (A) (A) (A) (A) (A) (A)
                 (A) (A) (A) (A) (A) (A) (A) (A) (A) (A) (A) (A)
                 (A) (A) (A) (A) (A) (A) (A) (A) (A) (A) (A) (A)
                 (A) (A) (A) (A) (A) (A) (A) (A) (A) (A) (A) (A)
                 (A) (A) (A) (A) (A) (A) (A) (A) (A) (A) (A) (A)
                 (A) (A) (A) (A) (A) (A) (A) (A) (A) (A) (A) (A)
                 (A) (A) (A) (A) (A) (A) (A) (A) (A) (A) (A) (A)
                 (A) (A) (A) (A) (A) (A) (A) (A) (A) (A) (A) (A)
                 (A) (A) (A) (A) (A) (A) (A) (A) (A) (A) (A) (A)
                 (A) (A) (A) (A) (A) (A) (A) (A) (A) (A) (A) (A)
                 (A) (A) (A) (A) (A) (A) (A) (A) (A) (A) (A) (A)
                 (A) (A) (A) (A) (A) (A) (A) (A) (A) (A) (A) (A)
                 (A) (A) (A) (A) (A) (A) (A) (A) (A) (A) (A) (A)
                 (A) (A) (A) (A) (A) (A) (A) (A) (A) (A) (A) (A)
                 (A) (A) (A) (A) (A) (A) (A) (A) (A) (A) (A) (A)
                 (A) (A) (A) (A) (A) (A) (A) (A) (A) (A) (A) (A)
                 (A) (A) (A) (A) (A) (A) (A) (A) (A) (A) (A) (A)
                 (A) (A) (A) (A) (A) (A) (A) (A) (A) (A)
 The electronic state is 2-A.
 Alpha  occ. eigenvalues --  -77.20830 -77.20223 -19.22611 -19.17471 -19.17178
 Alpha  occ. eigenvalues --  -19.13261 -19.11514 -19.11417 -19.11179 -14.47852
 Alpha  occ. eigenvalues --  -10.30081 -10.26833 -10.21902 -10.21601  -6.65793
 Alpha  occ. eigenvalues --   -6.65118  -4.82193  -4.82143  -4.81909  -4.81538
 Alpha  occ. eigenvalues --   -4.81439  -4.81264  -1.08806  -1.04677  -1.04125
 Alpha  occ. eigenvalues --   -1.02111  -0.97879  -0.96938  -0.94389  -0.93575
 Alpha  occ. eigenvalues --   -0.83218  -0.76833  -0.68687  -0.63528  -0.60478
 Alpha  occ. eigenvalues --   -0.60337  -0.58335  -0.57684  -0.54683  -0.51968
 Alpha  occ. eigenvalues --   -0.50761  -0.48105  -0.46366  -0.46129  -0.45772
 Alpha  occ. eigenvalues --   -0.43061  -0.42074  -0.41296  -0.40839  -0.39689
 Alpha  occ. eigenvalues --   -0.39107  -0.38172  -0.37434  -0.37399  -0.36531
 Alpha  occ. eigenvalues --   -0.33527  -0.33173  -0.31919  -0.31274  -0.30212
 Alpha  occ. eigenvalues --   -0.29415  -0.28990  -0.28383  -0.27881  -0.27585
 Alpha virt. eigenvalues --    0.02331   0.04053   0.06077   0.06845   0.07635
 Alpha virt. eigenvalues --    0.08713   0.09051   0.09497   0.11089   0.12058
 Alpha virt. eigenvalues --    0.12912   0.13726   0.14575   0.15082   0.15475
 Alpha virt. eigenvalues --    0.15887   0.17433   0.18126   0.18474   0.20103
 Alpha virt. eigenvalues --    0.21364   0.22007   0.23603   0.24909   0.26163
 Alpha virt. eigenvalues --    0.32925   0.33065   0.37215   0.37789   0.39576
 Alpha virt. eigenvalues --    0.39982   0.43975   0.45687   0.47816   0.50220
 Alpha virt. eigenvalues --    0.51263   0.52805   0.54708   0.57954   0.58168
 Alpha virt. eigenvalues --    0.59251   0.61979   0.64233   0.65343   0.66524
 Alpha virt. eigenvalues --    0.70963   0.72553   0.74296   0.75781   0.76095
 Alpha virt. eigenvalues --    0.77312   0.77879   0.78315   0.78959   0.79905
 Alpha virt. eigenvalues --    0.80676   0.81256   0.83145   0.84438   0.84989
 Alpha virt. eigenvalues --    0.86809   0.87468   0.87972   0.88795   0.90185
 Alpha virt. eigenvalues --    0.90881   0.91800   0.93964   0.95019   0.95414
 Alpha virt. eigenvalues --    0.98049   0.98931   1.00199   1.01519   1.02651
 Alpha virt. eigenvalues --    1.03400   1.04682   1.04787   1.05703   1.06622
 Alpha virt. eigenvalues --    1.08114   1.09775   1.11856   1.13210   1.15016
 Alpha virt. eigenvalues --    1.16837   1.17675   1.18556   1.20241   1.22486
 Alpha virt. eigenvalues --    1.23497   1.25896   1.29106   1.30137   1.33344
 Alpha virt. eigenvalues --    1.37033   1.38416   1.42316   1.44134   1.47618
 Alpha virt. eigenvalues --    1.50610   1.51597   1.52185   1.53921   1.57113
 Alpha virt. eigenvalues --    1.58793   1.61676   1.62269   1.63729   1.64102
 Alpha virt. eigenvalues --    1.65008   1.68807   1.69164   1.74225   1.74961
 Alpha virt. eigenvalues --    1.78200   1.79367   1.80073   1.81125   1.81918
 Alpha virt. eigenvalues --    1.82224   1.83647   1.85033   1.85191   1.85591
 Alpha virt. eigenvalues --    1.87199   1.87588   1.89449   1.90004   1.91761
 Alpha virt. eigenvalues --    1.93265   1.96058   1.97709   1.98198   1.98503
 Alpha virt. eigenvalues --    2.01465   2.02445   2.05494   2.08832   2.09805
 Alpha virt. eigenvalues --    2.10888   2.12665   2.13545   2.15605   2.15955
 Alpha virt. eigenvalues --    2.17490   2.19726   2.21094   2.23555   2.24318
 Alpha virt. eigenvalues --    2.26568   2.27210   2.28814   2.33096   2.33853
 Alpha virt. eigenvalues --    2.35593   2.38013   2.39236   2.41081   2.44455
 Alpha virt. eigenvalues --    2.48368   2.49838   2.50192   2.53190   2.61543
 Alpha virt. eigenvalues --    2.63350   2.63464   2.63868   2.65042   2.67012
 Alpha virt. eigenvalues --    2.68783   2.69883   2.71627   2.74445   2.75757
 Alpha virt. eigenvalues --    2.76469   2.78571   2.80469   2.82262   2.83045
 Alpha virt. eigenvalues --    2.84828   2.86863   2.87828   2.90545   2.92541
 Alpha virt. eigenvalues --    2.92997   2.97084   3.12132   3.23316   3.25852
 Alpha virt. eigenvalues --    3.26054   3.33926   3.37684   3.37950   3.39711
 Alpha virt. eigenvalues --    3.41254   3.44729   3.49634   3.51117   3.54879
 Alpha virt. eigenvalues --    3.55633   3.80148   3.88514   3.91604   3.96838
 Alpha virt. eigenvalues --    4.00099   4.05267   4.10541   4.19527   4.30018
 Alpha virt. eigenvalues --    4.39907   4.52382   4.70294
  Beta  occ. eigenvalues --  -77.20836 -77.20222 -19.21936 -19.17350 -19.17116
  Beta  occ. eigenvalues --  -19.12755 -19.11232 -19.11182 -19.11064 -14.47853
  Beta  occ. eigenvalues --  -10.29742 -10.26834 -10.21896 -10.21584  -6.65799
  Beta  occ. eigenvalues --   -6.65117  -4.82221  -4.82102  -4.81933  -4.81548
  Beta  occ. eigenvalues --   -4.81414  -4.81271  -1.07459  -1.04224  -1.03828
  Beta  occ. eigenvalues --   -1.02110  -0.97086  -0.96535  -0.93402  -0.93103
  Beta  occ. eigenvalues --   -0.82977  -0.76277  -0.68180  -0.63119  -0.60338
  Beta  occ. eigenvalues --   -0.59749  -0.58220  -0.57225  -0.54388  -0.51887
  Beta  occ. eigenvalues --   -0.50151  -0.47717  -0.45952  -0.45478  -0.45207
  Beta  occ. eigenvalues --   -0.42645  -0.41890  -0.40943  -0.40327  -0.39242
  Beta  occ. eigenvalues --   -0.38249  -0.37790  -0.37173  -0.36819  -0.34236
  Beta  occ. eigenvalues --   -0.32941  -0.32239  -0.31452  -0.30214  -0.28961
  Beta  occ. eigenvalues --   -0.28140  -0.27631  -0.27345  -0.27086
  Beta virt. eigenvalues --   -0.21494   0.02342   0.04482   0.06459   0.07071
  Beta virt. eigenvalues --    0.07899   0.08864   0.09118   0.09620   0.11759
  Beta virt. eigenvalues --    0.12173   0.13244   0.13843   0.14779   0.15310
  Beta virt. eigenvalues --    0.15604   0.16368   0.17575   0.18332   0.18634
  Beta virt. eigenvalues --    0.20342   0.21499   0.22089   0.23980   0.25214
  Beta virt. eigenvalues --    0.26386   0.33047   0.33205   0.37506   0.37906
  Beta virt. eigenvalues --    0.39742   0.40126   0.44095   0.45903   0.47918
  Beta virt. eigenvalues --    0.50344   0.51297   0.52941   0.54871   0.58153
  Beta virt. eigenvalues --    0.58350   0.59423   0.62208   0.64344   0.65494
  Beta virt. eigenvalues --    0.66646   0.71120   0.72782   0.74403   0.75820
  Beta virt. eigenvalues --    0.76298   0.77418   0.77892   0.78340   0.79037
  Beta virt. eigenvalues --    0.80098   0.80838   0.81514   0.83344   0.84694
  Beta virt. eigenvalues --    0.85210   0.86973   0.87802   0.88155   0.89020
  Beta virt. eigenvalues --    0.90378   0.91216   0.91928   0.94155   0.95577
  Beta virt. eigenvalues --    0.95824   0.98326   0.99158   1.00564   1.01769
  Beta virt. eigenvalues --    1.02986   1.03876   1.05058   1.05162   1.06070
  Beta virt. eigenvalues --    1.07035   1.08276   1.10280   1.12120   1.13422
  Beta virt. eigenvalues --    1.15315   1.17313   1.17912   1.18991   1.20533
  Beta virt. eigenvalues --    1.22692   1.23710   1.26157   1.29292   1.30385
  Beta virt. eigenvalues --    1.33593   1.37296   1.38840   1.42581   1.44352
  Beta virt. eigenvalues --    1.47972   1.50864   1.51782   1.52456   1.54070
  Beta virt. eigenvalues --    1.57283   1.58937   1.61983   1.62342   1.64116
  Beta virt. eigenvalues --    1.64329   1.65151   1.69162   1.69313   1.74500
  Beta virt. eigenvalues --    1.75416   1.78467   1.79651   1.80612   1.81588
  Beta virt. eigenvalues --    1.82256   1.82882   1.84336   1.85421   1.85568
  Beta virt. eigenvalues --    1.86082   1.87560   1.88104   1.89738   1.90251
  Beta virt. eigenvalues --    1.92136   1.93590   1.96531   1.98209   1.98525
  Beta virt. eigenvalues --    1.99213   2.02147   2.02477   2.05830   2.09349
  Beta virt. eigenvalues --    2.10123   2.11057   2.12870   2.13630   2.15780
  Beta virt. eigenvalues --    2.16316   2.17642   2.19879   2.21248   2.23738
  Beta virt. eigenvalues --    2.24597   2.26787   2.27348   2.28968   2.33693
  Beta virt. eigenvalues --    2.34025   2.35931   2.38260   2.39357   2.41583
  Beta virt. eigenvalues --    2.44596   2.48519   2.50052   2.50353   2.53460
  Beta virt. eigenvalues --    2.61697   2.63437   2.63699   2.64087   2.65197
  Beta virt. eigenvalues --    2.67212   2.68908   2.69947   2.71702   2.74539
  Beta virt. eigenvalues --    2.75831   2.76787   2.78867   2.80649   2.82385
  Beta virt. eigenvalues --    2.83335   2.85019   2.87044   2.87878   2.90551
  Beta virt. eigenvalues --    2.92606   2.93105   2.97544   3.12136   3.23349
  Beta virt. eigenvalues --    3.25868   3.26101   3.33979   3.37726   3.38006
  Beta virt. eigenvalues --    3.39776   3.41278   3.45004   3.49690   3.51151
  Beta virt. eigenvalues --    3.54946   3.55718   3.80581   3.88816   3.91987
  Beta virt. eigenvalues --    3.97228   4.00460   4.05346   4.10854   4.19920
  Beta virt. eigenvalues --    4.30280   4.40313   4.52498   4.70381
     Alpha Molecular Orbital Coefficients:
                           1         2         3         4         5
                           O         O         O         O         O
     Eigenvalues --   -77.20830 -77.20223 -19.22611 -19.17471 -19.17178
   1 1   C  1S          0.00000   0.00000   0.00001   0.00000   0.00000
   2        2S          0.00002   0.00001   0.00004   0.00003   0.00000
   3        2PX         0.00000  -0.00000   0.00002   0.00002  -0.00001
   4        2PY        -0.00001   0.00000   0.00001   0.00000  -0.00000
   5        2PZ        -0.00000  -0.00000  -0.00003  -0.00000  -0.00000
   6        3S         -0.00017  -0.00002  -0.00035  -0.00029   0.00002
   7        3PX         0.00006   0.00003   0.00002  -0.00004   0.00005
   8        3PY        -0.00002   0.00005  -0.00019  -0.00014   0.00008
   9        3PZ        -0.00003   0.00003   0.00005  -0.00009  -0.00000
  10        4XX         0.00000   0.00000  -0.00001  -0.00001   0.00000
  11        4YY         0.00000   0.00001   0.00001   0.00000   0.00000
  12        4ZZ         0.00001   0.00000  -0.00001   0.00000   0.00000
  13        4XY         0.00000  -0.00000   0.00001   0.00001  -0.00000
  14        4XZ         0.00000  -0.00000   0.00001   0.00000   0.00000
  15        4YZ        -0.00000   0.00000  -0.00001  -0.00001   0.00000
  16 2   C  1S          0.00001  -0.00001  -0.00001   0.00001   0.00000
  17        2S          0.00006  -0.00002  -0.00007  -0.00000   0.00000
  18        2PX        -0.00003   0.00002  -0.00006  -0.00001   0.00001
  19        2PY         0.00001   0.00000   0.00000   0.00004   0.00001
  20        2PZ         0.00001  -0.00000   0.00004   0.00004  -0.00001
  21        3S         -0.00031   0.00008   0.00048  -0.00027  -0.00002
  22        3PX         0.00038  -0.00015   0.00031   0.00033  -0.00004
  23        3PY        -0.00002  -0.00002  -0.00013  -0.00016  -0.00001
  24        3PZ        -0.00004   0.00005   0.00020  -0.00016   0.00009
  25        4XX         0.00000  -0.00000   0.00000   0.00002   0.00000
  26        4YY         0.00002  -0.00002   0.00001   0.00004  -0.00000
  27        4ZZ         0.00002  -0.00002   0.00002  -0.00000   0.00000
  28        4XY        -0.00000   0.00001  -0.00001  -0.00002  -0.00001
  29        4XZ        -0.00001   0.00000  -0.00005  -0.00001  -0.00000
  30        4YZ        -0.00000  -0.00000  -0.00000   0.00003  -0.00000
  31 3   H  1S          0.00001   0.00000  -0.00001  -0.00000  -0.00000
  32        2S          0.00001   0.00004  -0.00005  -0.00002   0.00007
  33        3PX        -0.00000  -0.00000   0.00000   0.00000  -0.00000
  34        3PY         0.00000   0.00000  -0.00001  -0.00000   0.00001
  35        3PZ         0.00000  -0.00000  -0.00000   0.00001  -0.00000
  36 4   H  1S         -0.00000   0.00000   0.00003   0.00000   0.00001
  37        2S          0.00002   0.00002   0.00011   0.00001  -0.00003
  38        3PX        -0.00000  -0.00000  -0.00000   0.00000  -0.00000
  39        3PY        -0.00000  -0.00000   0.00001   0.00001  -0.00000
  40        3PZ         0.00000   0.00000   0.00001   0.00000  -0.00000
  41 5   C  1S         -0.00002  -0.00000   0.00000  -0.00005   0.00000
  42        2S         -0.00004   0.00002   0.00005  -0.00022  -0.00003
  43        2PX         0.00002   0.00003  -0.00002   0.00001  -0.00003
  44        2PY        -0.00003  -0.00001  -0.00002  -0.00003   0.00000
  45        2PZ        -0.00001   0.00000   0.00008   0.00001   0.00002
  46        3S          0.00039  -0.00024   0.00045   0.00147   0.00012
  47        3PX         0.00022   0.00022  -0.00005  -0.00040   0.00009
  48        3PY        -0.00004  -0.00006   0.00029   0.00060  -0.00019
  49        3PZ         0.00005  -0.00021  -0.00023   0.00032  -0.00004
  50        4XX        -0.00003  -0.00005   0.00001  -0.00005   0.00002
  51        4YY        -0.00006  -0.00001   0.00001  -0.00006   0.00004
  52        4ZZ        -0.00003  -0.00002  -0.00006  -0.00007   0.00001
  53        4XY         0.00003   0.00001   0.00002  -0.00001   0.00003
  54        4XZ         0.00000   0.00001   0.00002  -0.00002   0.00000
  55        4YZ        -0.00001   0.00001  -0.00000   0.00003  -0.00000
  56 6   H  1S          0.00003  -0.00001   0.00010   0.00005  -0.00001
  57        2S          0.00004  -0.00002  -0.00064   0.00010  -0.00004
  58        3PX        -0.00002   0.00001   0.00002  -0.00002   0.00000
  59        3PY         0.00000  -0.00000  -0.00001   0.00002  -0.00000
  60        3PZ         0.00000  -0.00000   0.00006  -0.00001   0.00000
  61 7   H  1S          0.00003  -0.00001  -0.00005   0.00004   0.00001
  62        2S         -0.00011   0.00003   0.00018   0.00013   0.00001
  63        3PX         0.00001   0.00001  -0.00004  -0.00001   0.00000
  64        3PY         0.00000  -0.00001  -0.00000   0.00000  -0.00001
  65        3PZ         0.00001  -0.00000   0.00000  -0.00001  -0.00001
  66 8   H  1S          0.00001   0.00001  -0.00005  -0.00006  -0.00004
  67        2S         -0.00020  -0.00019  -0.00023  -0.00002   0.00010
  68        3PX         0.00001   0.00002   0.00002   0.00001  -0.00002
  69        3PY        -0.00003   0.00001  -0.00002  -0.00003  -0.00000
  70        3PZ        -0.00002  -0.00001  -0.00001   0.00000   0.00001
  71 9   H  1S         -0.00002   0.00002   0.00005  -0.00001   0.00004
  72        2S         -0.00004  -0.00015   0.00014   0.00011  -0.00026
  73        3PX        -0.00001   0.00003  -0.00002   0.00001   0.00003
  74        3PY         0.00001  -0.00001   0.00001   0.00001  -0.00002
  75        3PZ        -0.00001   0.00000   0.00004  -0.00002   0.00002
  76 10  N  1S          0.00000  -0.00000   0.00000  -0.00000   0.00000
  77        2S          0.00001  -0.00000   0.00001  -0.00001   0.00001
  78        2PX        -0.00001   0.00000  -0.00001  -0.00000   0.00000
  79        2PY         0.00000  -0.00000   0.00000   0.00000  -0.00000
  80        2PZ         0.00000  -0.00000   0.00001   0.00000  -0.00000
  81        3S         -0.00005  -0.00001  -0.00001   0.00014  -0.00006
  82        3PX         0.00004  -0.00001   0.00002  -0.00004   0.00002
  83        3PY        -0.00003   0.00002   0.00001  -0.00003   0.00001
  84        3PZ        -0.00000   0.00002  -0.00012  -0.00003   0.00001
  85        4XX         0.00001  -0.00000   0.00001   0.00000   0.00000
  86        4YY         0.00001  -0.00000   0.00002  -0.00001   0.00001
  87        4ZZ         0.00001  -0.00000   0.00000  -0.00000   0.00000
  88        4XY        -0.00000   0.00000  -0.00000   0.00000  -0.00000
  89        4XZ        -0.00000   0.00000   0.00000   0.00000  -0.00000
  90        4YZ         0.00000  -0.00000   0.00000   0.00000  -0.00000
  91 11  H  1S         -0.00001   0.00001  -0.00001  -0.00001   0.00000
  92        2S         -0.00003   0.00001  -0.00004  -0.00001  -0.00000
  93        3PX         0.00000  -0.00000   0.00001   0.00000  -0.00000
  94        3PY        -0.00000   0.00000  -0.00001   0.00000  -0.00000
  95        3PZ        -0.00000   0.00000   0.00000   0.00000  -0.00000
  96 12  H  1S          0.00001  -0.00000   0.00000  -0.00000  -0.00000
  97        2S          0.00002  -0.00000  -0.00004   0.00001  -0.00000
  98        3PX        -0.00000   0.00000  -0.00000   0.00000   0.00000
  99        3PY        -0.00000   0.00000   0.00001  -0.00000   0.00000
 100        3PZ         0.00000  -0.00000   0.00000   0.00000  -0.00000
 101 13  H  1S          0.00000  -0.00000   0.00001  -0.00000   0.00000
 102        2S         -0.00001  -0.00001   0.00012  -0.00000  -0.00000
 103        3PX        -0.00000   0.00000  -0.00001   0.00000  -0.00000
 104        3PY         0.00000  -0.00000   0.00000   0.00000  -0.00000
 105        3PZ         0.00000  -0.00000  -0.00001   0.00000   0.00000
 106 14  C  1S         -0.00004  -0.00004  -0.00002  -0.00001  -0.00002
 107        2S         -0.00004  -0.00009   0.00008  -0.00006  -0.00014
 108        2PX        -0.00000  -0.00003   0.00006   0.00005  -0.00000
 109        2PY         0.00004  -0.00003  -0.00005   0.00002  -0.00002
 110        2PZ        -0.00001   0.00000   0.00032  -0.00002  -0.00006
 111        3S          0.00081   0.00121  -0.00113   0.00020   0.00087
 112        3PX        -0.00004  -0.00027  -0.00033  -0.00072  -0.00031
 113        3PY         0.00045  -0.00032   0.00039   0.00079  -0.00023
 114        3PZ         0.00003  -0.00003  -0.00093   0.00023  -0.00006
 115        4XX        -0.00008  -0.00011   0.00001  -0.00004   0.00001
 116        4YY        -0.00014  -0.00009   0.00003   0.00006   0.00001
 117        4ZZ        -0.00007  -0.00007   0.00029  -0.00001  -0.00004
 118        4XY         0.00001  -0.00003  -0.00000   0.00002   0.00003
 119        4XZ        -0.00000  -0.00001   0.00005   0.00003  -0.00001
 120        4YZ         0.00003  -0.00000  -0.00002  -0.00002   0.00001
 121 15  O  1S          0.00000   0.00000   0.99269   0.00000  -0.00004
 122        2S          0.00003   0.00001   0.02598  -0.00007  -0.00013
 123        2PX         0.00001   0.00002  -0.00084   0.00001   0.00002
 124        2PY         0.00000   0.00001  -0.00004  -0.00002   0.00005
 125        2PZ         0.00002   0.00001  -0.00044   0.00000   0.00005
 126        3S         -0.00027  -0.00022   0.01238   0.00021   0.00038
 127        3PX        -0.00002  -0.00002  -0.00012   0.00006  -0.00004
 128        3PY        -0.00013   0.00003   0.00002   0.00014  -0.00017
 129        3PZ         0.00011   0.00017  -0.00039  -0.00004  -0.00020
 130        4XX        -0.00001   0.00003  -0.00814  -0.00003  -0.00011
 131        4YY         0.00001  -0.00002  -0.00814   0.00000  -0.00009
 132        4ZZ         0.00000  -0.00000  -0.00831  -0.00005  -0.00009
 133        4XY        -0.00001   0.00003   0.00001  -0.00000   0.00003
 134        4XZ         0.00001  -0.00001  -0.00005  -0.00002   0.00002
 135        4YZ         0.00001   0.00000   0.00001  -0.00000   0.00002
 136 16  H  1S          0.00002  -0.00002   0.00033  -0.00008  -0.00007
 137        2S         -0.00013  -0.00023  -0.00159   0.00016   0.00041
 138        3PX        -0.00000  -0.00002  -0.00012   0.00001   0.00003
 139        3PY        -0.00002  -0.00001  -0.00002  -0.00001  -0.00001
 140        3PZ         0.00002  -0.00002   0.00011   0.00001  -0.00002
 141 17  P  1S         -0.00031   0.99625   0.00000  -0.00000   0.00001
 142        2S         -0.00001   0.01417   0.00001   0.00000   0.00000
 143        2PX         0.00001   0.00005   0.00000  -0.00000  -0.00003
 144        2PY         0.00001  -0.00001  -0.00000   0.00001   0.00006
 145        2PZ        -0.00000   0.00001  -0.00000   0.00000  -0.00000
 146        3S          0.00011  -0.02720   0.00013   0.00001   0.00006
 147        3PX        -0.00008  -0.00018   0.00002  -0.00000   0.00012
 148        3PY        -0.00006  -0.00004   0.00004  -0.00005  -0.00006
 149        3PZ         0.00002  -0.00003   0.00008  -0.00001   0.00004
 150        4S         -0.00008   0.00286   0.00002  -0.00009  -0.00266
 151        4PX         0.00006   0.00015  -0.00023  -0.00002  -0.00080
 152        4PY        -0.00013   0.00027   0.00021  -0.00003   0.00130
 153        4PZ         0.00003  -0.00006   0.00020   0.00018  -0.00119
 154        5XX        -0.00005   0.00941   0.00002   0.00001   0.00006
 155        5YY        -0.00009   0.00942  -0.00005  -0.00003   0.00030
 156        5ZZ        -0.00004   0.00946  -0.00003  -0.00001  -0.00004
 157        5XY        -0.00004  -0.00002   0.00001  -0.00003  -0.00011
 158        5XZ        -0.00001  -0.00002  -0.00003  -0.00003   0.00004
 159        5YZ        -0.00002  -0.00003  -0.00000  -0.00002   0.00005
 160 18  P  1S          0.99625   0.00032   0.00000   0.00001   0.00000
 161        2S          0.01417   0.00001   0.00005   0.00003   0.00001
 162        2PX         0.00003  -0.00000  -0.00001  -0.00005  -0.00000
 163        2PY        -0.00003  -0.00001   0.00001  -0.00001   0.00000
 164        2PZ         0.00002   0.00000   0.00000  -0.00004   0.00000
 165        3S         -0.02722   0.00014   0.00028   0.00015   0.00005
 166        3PX        -0.00008   0.00001   0.00012   0.00011   0.00001
 167        3PY         0.00015   0.00008  -0.00013  -0.00013  -0.00002
 168        3PZ        -0.00007  -0.00004   0.00004   0.00011  -0.00001
 169        4S          0.00297  -0.00030  -0.00126  -0.00322  -0.00029
 170        4PX         0.00012   0.00012  -0.00012  -0.00082   0.00041
 171        4PY        -0.00030   0.00012   0.00041   0.00024   0.00018
 172        4PZ        -0.00012   0.00005  -0.00051  -0.00152   0.00002
 173        5XX         0.00944  -0.00003   0.00002   0.00016   0.00000
 174        5YY         0.00940  -0.00010   0.00002   0.00010  -0.00001
 175        5ZZ         0.00948  -0.00004   0.00000   0.00008   0.00001
 176        5XY        -0.00000  -0.00002  -0.00002   0.00010   0.00000
 177        5XZ        -0.00001   0.00001   0.00003   0.00019   0.00002
 178        5YZ         0.00002   0.00000  -0.00002   0.00006  -0.00000
 179 19  O  1S          0.00001   0.00000  -0.00001   0.00000  -0.00004
 180        2S          0.00003  -0.00006  -0.00000   0.00005  -0.00023
 181        2PX         0.00001  -0.00009  -0.00000   0.00002   0.00000
 182        2PY         0.00001   0.00002  -0.00001  -0.00000   0.00003
 183        2PZ        -0.00001   0.00014  -0.00004   0.00000  -0.00003
 184        3S         -0.00012   0.00062   0.00002  -0.00024   0.00147
 185        3PX        -0.00005   0.00021   0.00010  -0.00008   0.00023
 186        3PY        -0.00002  -0.00007   0.00006   0.00001  -0.00022
 187        3PZ         0.00005  -0.00033   0.00024  -0.00001  -0.00013
 188        4XX         0.00003  -0.00004  -0.00001   0.00003  -0.00012
 189        4YY         0.00003   0.00003   0.00001   0.00005  -0.00019
 190        4ZZ         0.00003  -0.00015  -0.00001   0.00004  -0.00015
 191        4XY        -0.00001   0.00000   0.00001  -0.00001   0.00002
 192        4XZ         0.00002   0.00014   0.00003  -0.00000   0.00000
 193        4YZ         0.00000   0.00000   0.00002  -0.00001  -0.00001
 194 20  O  1S          0.00001   0.00000  -0.00003  -0.00004  -0.00001
 195        2S         -0.00006   0.00002  -0.00016  -0.00019  -0.00007
 196        2PX        -0.00015  -0.00001  -0.00003   0.00000  -0.00001
 197        2PY         0.00004  -0.00001   0.00003   0.00001   0.00000
 198        2PZ         0.00007   0.00001  -0.00003  -0.00006   0.00000
 199        3S          0.00061  -0.00003   0.00076   0.00118   0.00037
 200        3PX         0.00036   0.00003   0.00021   0.00030   0.00005
 201        3PY        -0.00007   0.00006  -0.00016  -0.00015  -0.00004
 202        3PZ        -0.00016  -0.00003   0.00010   0.00021  -0.00004
 203        4XX        -0.00015   0.00002  -0.00010  -0.00013  -0.00005
 204        4YY         0.00000  -0.00001  -0.00011  -0.00011  -0.00005
 205        4ZZ         0.00001   0.00002  -0.00013  -0.00013  -0.00004
 206        4XY         0.00010  -0.00001  -0.00003  -0.00004  -0.00001
 207        4XZ         0.00009   0.00000   0.00001  -0.00001  -0.00000
 208        4YZ        -0.00004  -0.00000  -0.00001  -0.00003  -0.00000
 209 21  O  1S          0.00001   0.00002   0.00000  -0.00001  -0.00002
 210        2S          0.00003  -0.00002   0.00001  -0.00003   0.00008
 211        2PX         0.00001  -0.00006  -0.00001  -0.00000  -0.00001
 212        2PY         0.00001   0.00005   0.00001   0.00001   0.00002
 213        2PZ        -0.00001  -0.00016   0.00002  -0.00000   0.00002
 214        3S         -0.00009   0.00038  -0.00002   0.00017  -0.00036
 215        3PX        -0.00006   0.00011   0.00005   0.00002   0.00009
 216        3PY        -0.00005  -0.00015  -0.00005  -0.00005  -0.00016
 217        3PZ         0.00001   0.00035  -0.00005   0.00003   0.00002
 218        4XX         0.00002   0.00003   0.00001  -0.00002   0.00009
 219        4YY         0.00001   0.00006   0.00002  -0.00002   0.00003
 220        4ZZ         0.00003  -0.00013   0.00001  -0.00002   0.00009
 221        4XY        -0.00002   0.00003  -0.00001  -0.00001   0.00002
 222        4XZ        -0.00001  -0.00011   0.00001   0.00000   0.00001
 223        4YZ        -0.00000   0.00006  -0.00001  -0.00000  -0.00001
 224 22  O  1S          0.00002   0.00000   0.00000  -0.00004  -0.00000
 225        2S          0.00002   0.00000   0.00000  -0.00005  -0.00000
 226        2PX         0.00005  -0.00001  -0.00001  -0.00005   0.00002
 227        2PY         0.00000  -0.00001   0.00001  -0.00000  -0.00000
 228        2PZ        -0.00016   0.00001  -0.00000  -0.00001  -0.00000
 229        3S          0.00024   0.00000   0.00000   0.00033   0.00000
 230        3PX        -0.00010   0.00001   0.00004   0.00020  -0.00008
 231        3PY         0.00004   0.00002  -0.00004  -0.00002  -0.00001
 232        3PZ         0.00035  -0.00002   0.00004   0.00026  -0.00000
 233        4XX         0.00008   0.00002   0.00002  -0.00004   0.00001
 234        4YY         0.00009   0.00001   0.00000  -0.00002  -0.00000
 235        4ZZ        -0.00015   0.00001   0.00001  -0.00001  -0.00000
 236        4XY        -0.00001  -0.00001   0.00000  -0.00002  -0.00000
 237        4XZ         0.00007   0.00000   0.00000  -0.00001  -0.00001
 238        4YZ         0.00005   0.00000   0.00001  -0.00002  -0.00000
 239 23  O  1S         -0.00002  -0.00000  -0.00003   0.99272   0.00002
 240        2S         -0.00005  -0.00001  -0.00012   0.02584   0.00002
 241        2PX         0.00002   0.00000   0.00001   0.00016  -0.00000
 242        2PY         0.00000   0.00001  -0.00001   0.00012   0.00000
 243        2PZ         0.00004   0.00000   0.00001  -0.00094  -0.00001
 244        3S          0.00080   0.00002   0.00061   0.01232  -0.00011
 245        3PX        -0.00017  -0.00001  -0.00006  -0.00046   0.00001
 246        3PY        -0.00002  -0.00003  -0.00006  -0.00040  -0.00000
 247        3PZ        -0.00033  -0.00000  -0.00008  -0.00007   0.00003
 248        4XX        -0.00012  -0.00000  -0.00004  -0.00813   0.00001
 249        4YY        -0.00009  -0.00000  -0.00004  -0.00813   0.00001
 250        4ZZ        -0.00009  -0.00001  -0.00005  -0.00814   0.00001
 251        4XY        -0.00005   0.00000   0.00001   0.00002   0.00000
 252        4XZ        -0.00013   0.00000  -0.00004  -0.00005  -0.00000
 253        4YZ        -0.00009   0.00000  -0.00001  -0.00001  -0.00000
 254 24  H  1S         -0.00012   0.00001  -0.00007   0.00031   0.00002
 255        2S         -0.00023  -0.00002  -0.00002  -0.00093  -0.00009
 256        3PX        -0.00000   0.00000   0.00002   0.00012   0.00000
 257        3PY        -0.00000   0.00000   0.00001   0.00009   0.00001
 258        3PZ        -0.00003   0.00000  -0.00002  -0.00007   0.00000
 259 25  O  1S         -0.00000  -0.00002  -0.00001  -0.00001   0.99273
 260        2S         -0.00000  -0.00008  -0.00009  -0.00001   0.02584
 261        2PX        -0.00001   0.00002  -0.00001  -0.00000   0.00001
 262        2PY        -0.00001  -0.00005  -0.00003  -0.00001   0.00039
 263        2PZ         0.00000   0.00002  -0.00000   0.00000  -0.00088
 264        3S         -0.00002   0.00094   0.00037   0.00002   0.01225
 265        3PX         0.00002  -0.00012   0.00002   0.00000  -0.00007
 266        3PY         0.00002   0.00034   0.00015   0.00004   0.00046
 267        3PZ        -0.00001  -0.00015   0.00004  -0.00001   0.00041
 268        4XX        -0.00000  -0.00009  -0.00007  -0.00001  -0.00814
 269        4YY         0.00000  -0.00027  -0.00005  -0.00000  -0.00816
 270        4ZZ        -0.00001  -0.00000  -0.00009  -0.00001  -0.00811
 271        4XY         0.00000   0.00006   0.00001   0.00000   0.00002
 272        4XZ         0.00000  -0.00001   0.00001   0.00000  -0.00001
 273        4YZ        -0.00000   0.00000   0.00000  -0.00000   0.00003
 274 26  H  1S         -0.00001  -0.00012  -0.00000  -0.00000   0.00036
 275        2S          0.00000  -0.00021   0.00009   0.00004  -0.00095
 276        3PX        -0.00000   0.00000  -0.00001  -0.00000   0.00003
 277        3PY        -0.00000   0.00000   0.00000   0.00000  -0.00007
 278        3PZ         0.00000  -0.00001   0.00002   0.00001  -0.00012
                           6         7         8         9        10
                           O         O         O         O         O
     Eigenvalues --   -19.13261 -19.11514 -19.11417 -19.11179 -14.47852
   1 1   C  1S          0.00000   0.00000  -0.00000  -0.00000  -0.00002
   2        2S         -0.00001   0.00002  -0.00000  -0.00001  -0.00011
   3        2PX        -0.00002   0.00001   0.00001  -0.00001   0.00023
   4        2PY         0.00002  -0.00001   0.00000  -0.00000   0.00008
   5        2PZ        -0.00001   0.00000  -0.00000   0.00000   0.00009
   6        3S          0.00013  -0.00016  -0.00007   0.00015   0.00024
   7        3PX         0.00009   0.00004  -0.00011   0.00005   0.00003
   8        3PY        -0.00009  -0.00000  -0.00006   0.00006   0.00011
   9        3PZ         0.00026  -0.00003  -0.00003   0.00004   0.00010
  10        4XX         0.00001  -0.00000  -0.00001   0.00001   0.00024
  11        4YY         0.00002  -0.00001  -0.00001   0.00000   0.00002
  12        4ZZ         0.00001   0.00001  -0.00000  -0.00000   0.00003
  13        4XY        -0.00000   0.00001  -0.00000   0.00000   0.00010
  14        4XZ        -0.00001   0.00000  -0.00001   0.00000   0.00011
  15        4YZ         0.00001  -0.00000   0.00000  -0.00000   0.00004
  16 2   C  1S         -0.00001  -0.00000  -0.00002   0.00001   0.00001
  17        2S          0.00001  -0.00003  -0.00011   0.00005   0.00011
  18        2PX         0.00007  -0.00004   0.00000   0.00001   0.00000
  19        2PY        -0.00003   0.00001  -0.00001  -0.00000  -0.00000
  20        2PZ         0.00003  -0.00000  -0.00001   0.00000  -0.00000
  21        3S         -0.00025   0.00030   0.00087  -0.00043  -0.00044
  22        3PX        -0.00028   0.00019  -0.00042   0.00012  -0.00021
  23        3PY         0.00007   0.00020  -0.00007   0.00005   0.00004
  24        3PZ        -0.00018  -0.00008  -0.00017   0.00014   0.00003
  25        4XX        -0.00001   0.00000   0.00001  -0.00001  -0.00005
  26        4YY        -0.00001   0.00001  -0.00003   0.00001   0.00001
  27        4ZZ        -0.00005   0.00001  -0.00003   0.00001   0.00002
  28        4XY         0.00002  -0.00003   0.00001   0.00000   0.00000
  29        4XZ         0.00001  -0.00000   0.00003  -0.00001  -0.00000
  30        4YZ         0.00000  -0.00001   0.00001  -0.00000  -0.00000
  31 3   H  1S         -0.00002   0.00001  -0.00001   0.00000  -0.00003
  32        2S         -0.00010   0.00004  -0.00000  -0.00001  -0.00004
  33        3PX        -0.00001  -0.00000   0.00000  -0.00000  -0.00005
  34        3PY        -0.00001   0.00001   0.00000  -0.00000  -0.00003
  35        3PZ        -0.00001   0.00000   0.00000  -0.00000  -0.00002
  36 4   H  1S          0.00003  -0.00000   0.00001  -0.00001  -0.00003
  37        2S          0.00012   0.00002  -0.00002   0.00001  -0.00004
  38        3PX        -0.00001  -0.00000   0.00001  -0.00001  -0.00005
  39        3PY         0.00000  -0.00000   0.00000  -0.00000  -0.00002
  40        3PZ         0.00001   0.00000  -0.00000   0.00000  -0.00003
  41 5   C  1S         -0.00001   0.00002  -0.00001   0.00000  -0.00000
  42        2S         -0.00004   0.00005  -0.00004   0.00002  -0.00001
  43        2PX        -0.00002  -0.00002   0.00010  -0.00003  -0.00001
  44        2PY        -0.00006   0.00008   0.00002  -0.00002   0.00000
  45        2PZ        -0.00003  -0.00001   0.00003  -0.00003   0.00000
  46        3S         -0.00029  -0.00002  -0.00001  -0.00008  -0.00003
  47        3PX         0.00027   0.00013  -0.00094   0.00048   0.00015
  48        3PY         0.00017  -0.00053  -0.00032   0.00030  -0.00003
  49        3PZ        -0.00013   0.00020   0.00007  -0.00011  -0.00003
  50        4XX        -0.00004   0.00003  -0.00005   0.00000   0.00001
  51        4YY        -0.00003   0.00006  -0.00002   0.00000  -0.00000
  52        4ZZ        -0.00002   0.00004  -0.00003  -0.00001  -0.00000
  53        4XY         0.00000   0.00002  -0.00002  -0.00000   0.00001
  54        4XZ         0.00001   0.00000  -0.00004   0.00003   0.00001
  55        4YZ        -0.00003  -0.00000   0.00001   0.00000  -0.00000
  56 6   H  1S          0.00004  -0.00001  -0.00002   0.00001   0.00002
  57        2S          0.00012   0.00002  -0.00002  -0.00001   0.00005
  58        3PX         0.00002  -0.00001   0.00002  -0.00001   0.00001
  59        3PY        -0.00001  -0.00001   0.00000  -0.00000  -0.00000
  60        3PZ        -0.00002   0.00000  -0.00000  -0.00000   0.00000
  61 7   H  1S         -0.00006   0.00002  -0.00003   0.00001   0.00002
  62        2S          0.00037  -0.00044  -0.00002   0.00002   0.00007
  63        3PX        -0.00003   0.00001   0.00001  -0.00000   0.00001
  64        3PY        -0.00001   0.00002  -0.00001   0.00000   0.00000
  65        3PZ        -0.00000   0.00000   0.00000  -0.00001   0.00000
  66 8   H  1S          0.00006   0.00008  -0.00006   0.00004  -0.00001
  67        2S         -0.00006  -0.00005   0.00030  -0.00017   0.00001
  68        3PX        -0.00003   0.00000   0.00003  -0.00002  -0.00001
  69        3PY         0.00002   0.00001   0.00001  -0.00001   0.00000
  70        3PZ        -0.00003  -0.00001   0.00002  -0.00001   0.00000
  71 9   H  1S          0.00003  -0.00006  -0.00004   0.00002  -0.00001
  72        2S          0.00018  -0.00026  -0.00019   0.00024   0.00001
  73        3PX        -0.00001  -0.00001   0.00004  -0.00002  -0.00001
  74        3PY         0.00002  -0.00002  -0.00001   0.00001   0.00000
  75        3PZ         0.00000   0.00000   0.00001  -0.00001   0.00000
  76 10  N  1S         -0.00000   0.00000  -0.00001   0.00000   0.99262
  77        2S         -0.00000   0.00001  -0.00003   0.00002   0.03485
  78        2PX         0.00000  -0.00000   0.00001  -0.00000   0.00013
  79        2PY        -0.00001   0.00000  -0.00000   0.00000   0.00005
  80        2PZ         0.00000   0.00000  -0.00000  -0.00000   0.00005
  81        3S         -0.00004  -0.00006   0.00017  -0.00011   0.00428
  82        3PX         0.00002   0.00002  -0.00013   0.00007   0.00015
  83        3PY         0.00013  -0.00005   0.00002   0.00000   0.00010
  84        3PZ        -0.00001   0.00000  -0.00002   0.00002   0.00010
  85        4XX        -0.00001   0.00001  -0.00001   0.00000  -0.00851
  86        4YY         0.00000   0.00001  -0.00002   0.00001  -0.00840
  87        4ZZ        -0.00000   0.00001  -0.00002   0.00001  -0.00841
  88        4XY        -0.00001   0.00000   0.00001  -0.00000  -0.00005
  89        4XZ         0.00000  -0.00000   0.00001  -0.00000  -0.00005
  90        4YZ        -0.00000   0.00000  -0.00000  -0.00000  -0.00002
  91 11  H  1S          0.00001  -0.00000   0.00001  -0.00000   0.00032
  92        2S          0.00002  -0.00002   0.00003  -0.00001  -0.00048
  93        3PX        -0.00000   0.00000  -0.00000  -0.00000  -0.00002
  94        3PY        -0.00000  -0.00000   0.00000  -0.00000   0.00001
  95        3PZ         0.00000  -0.00000   0.00001  -0.00000   0.00001
  96 12  H  1S         -0.00001   0.00001  -0.00002   0.00001   0.00030
  97        2S         -0.00009   0.00006   0.00001  -0.00000  -0.00052
  98        3PX         0.00000  -0.00001   0.00000  -0.00000   0.00000
  99        3PY         0.00001  -0.00000  -0.00000   0.00000  -0.00001
 100        3PZ        -0.00000   0.00000  -0.00000  -0.00000  -0.00000
 101 13  H  1S          0.00000   0.00000  -0.00001   0.00000   0.00030
 102        2S          0.00001  -0.00000   0.00002  -0.00001  -0.00052
 103        3PX         0.00000  -0.00000   0.00000  -0.00000   0.00000
 104        3PY        -0.00001   0.00000  -0.00000   0.00000  -0.00000
 105        3PZ        -0.00000   0.00000  -0.00001   0.00000  -0.00001
 106 14  C  1S         -0.00004  -0.00002  -0.00002  -0.00003  -0.00000
 107        2S         -0.00023  -0.00011  -0.00010  -0.00019  -0.00001
 108        2PX        -0.00004   0.00003   0.00001   0.00001   0.00001
 109        2PY        -0.00001  -0.00000  -0.00003   0.00004   0.00000
 110        2PZ         0.00005  -0.00004   0.00006  -0.00001   0.00000
 111        3S          0.00139   0.00061   0.00035   0.00131   0.00010
 112        3PX         0.00047  -0.00034  -0.00060  -0.00029   0.00001
 113        3PY         0.00057   0.00031   0.00036  -0.00062  -0.00004
 114        3PZ        -0.00055  -0.00007  -0.00057   0.00054  -0.00006
 115        4XX        -0.00005   0.00001   0.00003  -0.00002   0.00000
 116        4YY         0.00001   0.00002  -0.00001  -0.00004   0.00000
 117        4ZZ        -0.00003  -0.00002  -0.00004   0.00003  -0.00000
 118        4XY        -0.00001  -0.00002   0.00003   0.00000  -0.00000
 119        4XZ        -0.00001   0.00000   0.00004   0.00002  -0.00000
 120        4YZ        -0.00003  -0.00001  -0.00000   0.00001   0.00000
 121 15  O  1S          0.00001  -0.00004  -0.00000   0.00000   0.00000
 122        2S          0.00003  -0.00013  -0.00002   0.00001  -0.00000
 123        2PX        -0.00000   0.00002  -0.00001   0.00002   0.00000
 124        2PY         0.00003  -0.00004  -0.00002   0.00003  -0.00000
 125        2PZ        -0.00001   0.00002  -0.00001  -0.00004  -0.00000
 126        3S         -0.00004   0.00048   0.00028  -0.00015   0.00002
 127        3PX        -0.00007  -0.00001   0.00008  -0.00015  -0.00002
 128        3PY        -0.00016   0.00017   0.00004  -0.00012   0.00001
 129        3PZ         0.00008  -0.00012  -0.00006   0.00037  -0.00000
 130        4XX         0.00004  -0.00013  -0.00000   0.00001   0.00000
 131        4YY         0.00003  -0.00008  -0.00000   0.00002   0.00000
 132        4ZZ         0.00002  -0.00010   0.00002  -0.00008   0.00000
 133        4XY         0.00002  -0.00003  -0.00000   0.00002  -0.00000
 134        4XZ         0.00001   0.00000  -0.00002   0.00000  -0.00000
 135        4YZ         0.00002  -0.00001   0.00000  -0.00001  -0.00000
 136 16  H  1S          0.00002  -0.00003   0.00004  -0.00007  -0.00001
 137        2S         -0.00015   0.00016  -0.00025  -0.00036  -0.00000
 138        3PX        -0.00003   0.00003  -0.00001   0.00009  -0.00000
 139        3PY         0.00000   0.00000   0.00000   0.00005  -0.00000
 140        3PZ         0.00000  -0.00001   0.00002   0.00007   0.00000
 141 17  P  1S         -0.00000  -0.00000   0.00002   0.00001  -0.00000
 142        2S         -0.00004  -0.00001  -0.00006  -0.00007  -0.00000
 143        2PX         0.00000   0.00000  -0.00001   0.00001   0.00000
 144        2PY         0.00000  -0.00001  -0.00000  -0.00001   0.00000
 145        2PZ        -0.00001  -0.00000   0.00002  -0.00001   0.00000
 146        3S         -0.00012  -0.00008   0.00081   0.00066  -0.00001
 147        3PX        -0.00004   0.00001   0.00010  -0.00006  -0.00001
 148        3PY        -0.00005   0.00002   0.00003   0.00006  -0.00000
 149        3PZ         0.00010   0.00004  -0.00020   0.00016  -0.00000
 150        4S          0.00066  -0.00017  -0.00321  -0.00302   0.00000
 151        4PX         0.00026   0.00006   0.00007   0.00057   0.00001
 152        4PY         0.00009  -0.00014  -0.00058  -0.00038  -0.00001
 153        4PZ        -0.00011  -0.00025   0.00233  -0.00209  -0.00001
 154        5XX        -0.00004  -0.00003  -0.00021  -0.00022  -0.00001
 155        5YY        -0.00004   0.00007  -0.00024  -0.00020  -0.00000
 156        5ZZ        -0.00003  -0.00003  -0.00013  -0.00014  -0.00000
 157        5XY         0.00000  -0.00001  -0.00001   0.00001  -0.00000
 158        5XZ         0.00003   0.00001   0.00009  -0.00017   0.00000
 159        5YZ         0.00002   0.00002  -0.00005   0.00001   0.00000
 160 18  P  1S          0.00002   0.00001  -0.00000  -0.00000   0.00000
 161        2S         -0.00003  -0.00010  -0.00001  -0.00002   0.00000
 162        2PX        -0.00001   0.00002   0.00000  -0.00000  -0.00000
 163        2PY         0.00001   0.00000   0.00000   0.00000   0.00000
 164        2PZ         0.00002  -0.00001   0.00000   0.00001  -0.00000
 165        3S          0.00100   0.00059  -0.00006  -0.00006   0.00001
 166        3PX         0.00012  -0.00018   0.00002   0.00006   0.00001
 167        3PY        -0.00011   0.00000   0.00001   0.00000  -0.00000
 168        3PZ        -0.00016   0.00011  -0.00002  -0.00006   0.00001
 169        4S         -0.00427  -0.00241  -0.00044   0.00058  -0.00004
 170        4PX        -0.00142   0.00216  -0.00005  -0.00019  -0.00003
 171        4PY         0.00059  -0.00039   0.00018  -0.00022   0.00001
 172        4PZ         0.00199  -0.00127   0.00018   0.00018   0.00002
 173        5XX        -0.00026  -0.00011   0.00001  -0.00003   0.00000
 174        5YY        -0.00025  -0.00022  -0.00001   0.00000   0.00000
 175        5ZZ        -0.00009  -0.00024  -0.00003  -0.00004   0.00000
 176        5XY         0.00003  -0.00004   0.00003  -0.00001  -0.00000
 177        5XZ        -0.00005  -0.00006   0.00005  -0.00000   0.00000
 178        5YZ        -0.00002   0.00004   0.00003   0.00002  -0.00000
 179 19  O  1S         -0.00001   0.00011  -0.00101   0.99273  -0.00000
 180        2S          0.00002  -0.00009  -0.00001   0.02565  -0.00000
 181        2PX         0.00000   0.00000   0.00003   0.00044   0.00000
 182        2PY         0.00001  -0.00002  -0.00004  -0.00002  -0.00000
 183        2PZ        -0.00001   0.00001   0.00002  -0.00063   0.00000
 184        3S         -0.00009   0.00045  -0.00017   0.01259   0.00001
 185        3PX        -0.00002   0.00003  -0.00008   0.00039   0.00000
 186        3PY        -0.00003   0.00007   0.00017   0.00006   0.00000
 187        3PZ         0.00006  -0.00009  -0.00031  -0.00032  -0.00000
 188        4XX         0.00002  -0.00008   0.00002  -0.00815  -0.00000
 189        4YY         0.00001  -0.00005   0.00003  -0.00817  -0.00000
 190        4ZZ         0.00002  -0.00006   0.00010  -0.00817  -0.00000
 191        4XY         0.00000   0.00000   0.00002   0.00000   0.00000
 192        4XZ         0.00001  -0.00001  -0.00003   0.00000  -0.00000
 193        4YZ         0.00001  -0.00001   0.00000  -0.00001  -0.00000
 194 20  O  1S         -0.00016   0.99271  -0.00078  -0.00014   0.00000
 195        2S          0.00001   0.02568  -0.00011  -0.00002   0.00000
 196        2PX         0.00001   0.00068   0.00001   0.00002  -0.00000
 197        2PY        -0.00001  -0.00026   0.00004   0.00004   0.00000
 198        2PZ         0.00006  -0.00029   0.00003   0.00000   0.00000
 199        3S         -0.00009   0.01269   0.00037  -0.00000  -0.00001
 200        3PX         0.00014   0.00041   0.00000  -0.00007   0.00000
 201        3PY        -0.00003  -0.00029  -0.00016  -0.00012  -0.00000
 202        3PZ        -0.00040  -0.00010  -0.00013  -0.00000  -0.00000
 203        4XX         0.00008  -0.00820  -0.00006  -0.00003   0.00000
 204        4YY         0.00004  -0.00817  -0.00006   0.00000   0.00000
 205        4ZZ         0.00004  -0.00820  -0.00008  -0.00005   0.00000
 206        4XY        -0.00000  -0.00001   0.00000   0.00001  -0.00000
 207        4XZ        -0.00004   0.00001  -0.00001  -0.00001  -0.00000
 208        4YZ         0.00003   0.00000   0.00003   0.00000  -0.00000
 209 21  O  1S          0.00003   0.00074   0.99271   0.00102   0.00000
 210        2S         -0.00004  -0.00006   0.02563   0.00003   0.00000
 211        2PX        -0.00002  -0.00000   0.00030   0.00006   0.00000
 212        2PY        -0.00004  -0.00005  -0.00021  -0.00003  -0.00000
 213        2PZ        -0.00000  -0.00002   0.00069  -0.00003   0.00000
 214        3S          0.00011   0.00032   0.01287  -0.00001  -0.00001
 215        3PX         0.00006   0.00002   0.00040  -0.00021  -0.00000
 216        3PY         0.00014   0.00016  -0.00011   0.00009   0.00000
 217        3PZ         0.00002   0.00014   0.00042   0.00038  -0.00000
 218        4XX        -0.00005  -0.00010  -0.00819  -0.00002   0.00000
 219        4YY        -0.00004  -0.00006  -0.00822   0.00002   0.00000
 220        4ZZ        -0.00005  -0.00006  -0.00823   0.00009   0.00000
 221        4XY         0.00003   0.00001   0.00001   0.00001   0.00000
 222        4XZ         0.00002   0.00002   0.00001   0.00002  -0.00000
 223        4YZ        -0.00000   0.00001  -0.00000  -0.00001   0.00000
 224 22  O  1S          0.99267   0.00020  -0.00007   0.00002  -0.00000
 225        2S          0.02564   0.00010  -0.00012   0.00002  -0.00001
 226        2PX        -0.00020   0.00007   0.00002  -0.00002  -0.00000
 227        2PY        -0.00008  -0.00002   0.00002  -0.00001   0.00000
 228        2PZ         0.00073   0.00003  -0.00000   0.00000  -0.00000
 229        3S          0.01327  -0.00049   0.00056  -0.00008   0.00005
 230        3PX         0.00001  -0.00041  -0.00008   0.00007   0.00000
 231        3PY        -0.00024   0.00010  -0.00008   0.00005  -0.00000
 232        3PZ         0.00064   0.00003   0.00009  -0.00002   0.00001
 233        4XX        -0.00831   0.00008  -0.00008   0.00001  -0.00001
 234        4YY        -0.00826   0.00008  -0.00009   0.00002  -0.00001
 235        4ZZ        -0.00829   0.00012  -0.00008   0.00002  -0.00001
 236        4XY         0.00000   0.00002   0.00002  -0.00001   0.00000
 237        4XZ         0.00002  -0.00005  -0.00001   0.00000   0.00000
 238        4YZ        -0.00003   0.00001  -0.00000   0.00000  -0.00000
[...]
 183         V                 1.806123          3.035218
 184         V                 1.815880          2.889699
 185         V                 1.822557          2.875025
 186         V                 1.828818          2.965560
 187         V                 1.843361          3.039300
 188         V                 1.854213          3.120953
 189         V                 1.855676          3.068206
 190         V                 1.860816          3.083126
 191         V                 1.875604          3.143346
 192         V                 1.881044          3.022070
 193         V                 1.897380          3.054246
 194         V                 1.902507          3.255310
 195         V                 1.921358          3.310011
 196         V                 1.935899          3.171262
 197         V                 1.965311          3.304175
 198         V                 1.982090          2.932804
 199         V                 1.985246          3.272626
 200         V                 1.992133          3.487032
 201         V                 2.021472          3.573811
 202         V                 2.024772          3.225752
 203         V                 2.058304          3.304734
 204         V                 2.093487          3.422016
 205         V                 2.101231          3.384914
 206         V                 2.110575          3.347037
 207         V                 2.128697          3.382741
 208         V                 2.136297          3.465903
 209         V                 2.157798          3.528302
 210         V                 2.163164          3.411618
 211         V                 2.176417          3.459379
 212         V                 2.198787          3.235784
 213         V                 2.212481          3.305592
 214         V                 2.237378          3.362258
 215         V                 2.245969          3.476336
 216         V                 2.267867          3.541239
 217         V                 2.273477          3.246472
 218         V                 2.289680          3.568298
 219         V                 2.336931          3.616390
 220         V                 2.340247          3.694832
 221         V                 2.359312          3.661477
 222         V                 2.382600          3.599621
 223         V                 2.393571          3.580734
 224         V                 2.415834          3.703777
 225         V                 2.445960          3.796515
 226         V                 2.485192          3.734099
 227         V                 2.500525          4.522661
 228         V                 2.503528          4.249185
 229         V                 2.534596          3.996986
 230         V                 2.616974          3.641689
 231         V                 2.634370          3.644596
 232         V                 2.636994          3.736967
 233         V                 2.640871          3.707744
 234         V                 2.651968          3.985716
 235         V                 2.672124          3.880371
 236         V                 2.689077          3.785346
 237         V                 2.699466          3.786602
 238         V                 2.717018          3.802550
 239         V                 2.745388          4.127441
 240         V                 2.758307          3.857206
 241         V                 2.767868          4.484078
 242         V                 2.788670          4.428892
 243         V                 2.806489          4.208778
 244         V                 2.823855          4.292600
 245         V                 2.833349          4.467263
 246         V                 2.850191          4.651517
 247         V                 2.870444          4.114288
 248         V                 2.878775          4.028149
 249         V                 2.905510          4.090747
 250         V                 2.926063          4.179743
 251         V                 2.931048          4.305855
 252         V                 2.975437          4.571574
 253         V                 3.121360          5.571076
 254         V                 3.233488          4.965140
 255         V                 3.258676          5.030978
 256         V                 3.261008          5.042363
 257         V                 3.339785          5.247066
 258         V                 3.377261          6.279043
 259         V                 3.380062          6.227565
 260         V                 3.397763          5.207530
 261         V                 3.412779          5.376903
 262         V                 3.450043          6.375900
 263         V                 3.496900          9.409161
 264         V                 3.511506          6.025978
 265         V                 3.549457          6.698968
 266         V                 3.557181          8.628124
 267         V                 3.805807          9.779513
 268         V                 3.888155          9.888405
 269         V                 3.919874          9.893435
 270         V                 3.972276         10.348876
 271         V                 4.004598         10.471642
 272         V                 4.053459          9.765894
 273         V                 4.108541         10.499890
 274         V                 4.199201         10.728293
 275         V                 4.302800         10.340466
 276         V                 4.403135         10.520718
 277         V                 4.524978         10.302016
 278         V                 4.703812         10.558048
 Total kinetic energy from orbitals= 1.414306211761D+03
                          Isotropic Fermi Contact Couplings
        Atom                 a.u.       MegaHertz       Gauss      10(-4) cm-1
     1  C(13)             -0.00071      -0.79495      -0.28366      -0.26517
     2  C(13)              0.00464       5.21129       1.85952       1.73830
     3  H(1)              -0.00000      -0.01395      -0.00498      -0.00465
     4  H(1)               0.00001       0.02461       0.00878       0.00821
     5  C(13)             -0.00455      -5.11286      -1.82440      -1.70547
     6  H(1)              -0.00011      -0.48425      -0.17279      -0.16153
     7  H(1)               0.00037       1.65135       0.58924       0.55083
     8  H(1)              -0.00020      -0.89827      -0.32052      -0.29963
     9  H(1)               0.00747      33.40550      11.91991      11.14288
    10  N(14)             -0.00001      -0.00311      -0.00111      -0.00104
    11  H(1)               0.00001       0.06135       0.02189       0.02046
    12  H(1)               0.00001       0.02251       0.00803       0.00751
    13  H(1)               0.00000       0.00194       0.00069       0.00065
    14  C(13)             -0.00534      -6.00831      -2.14392      -2.00416
    15  O(17)              0.04527     -27.44244      -9.79215      -9.15381
    16  H(1)              -0.00213      -9.50705      -3.39235      -3.17121
    17  P(31)             -0.01166     -21.11836      -7.53556      -7.04433
    18  P(31)             -0.03973     -71.95091     -25.67387     -24.00024
    19  O(17)             -0.00063       0.38381       0.13695       0.12803
    20  O(17)              0.00497      -3.01423      -1.07555      -1.00544
    21  O(17)              0.00875      -5.30517      -1.89302      -1.76962
    22  O(17)              0.01526      -9.24950      -3.30045      -3.08530
    23  O(17)              0.00387      -2.34447      -0.83657      -0.78203
    24  H(1)              -0.00076      -3.38256      -1.20698      -1.12830
    25  O(17)              0.00485      -2.94302      -1.05014      -0.98169
    26  H(1)              -0.00010      -0.45533      -0.16247      -0.15188
 --------------------------------------------------------
       Center         ----  Spin Dipole Couplings  ----
                      3XX-RR        3YY-RR        3ZZ-RR
 --------------------------------------------------------
     1   Atom        0.002297     -0.000969     -0.001328
     2   Atom        0.011779     -0.004958     -0.006821
     3   Atom        0.001519     -0.000354     -0.001165
     4   Atom        0.001394     -0.000762     -0.000632
     5   Atom       -0.005803      0.010243     -0.004440
     6   Atom        0.005519     -0.003440     -0.002079
     7   Atom        0.004626     -0.001733     -0.002893
     8   Atom       -0.002091     -0.000001      0.002092
     9   Atom       -0.001039      0.003484     -0.002444
    10   Atom        0.001347     -0.000596     -0.000751
    11   Atom        0.000887     -0.000406     -0.000481
    12   Atom        0.001453     -0.000720     -0.000733
    13   Atom        0.001340     -0.000635     -0.000705
    14   Atom       -0.139347      0.296962     -0.157615
    15   Atom       -0.514164      1.013820     -0.499656
    16   Atom        0.037893     -0.016250     -0.021643
    17   Atom        0.070066     -0.044018     -0.026048
    18   Atom       -0.042207      0.057339     -0.015133
    19   Atom       -0.056045      0.068917     -0.012872
    20   Atom       -0.211381      0.431363     -0.219983
    21   Atom        0.261950     -0.080277     -0.181673
    22   Atom       -0.374960      0.732395     -0.357435
    23   Atom       -0.056324      0.005434      0.050890
    24   Atom        0.000717     -0.001112      0.000395
    25   Atom       -0.049358      0.098116     -0.048758
    26   Atom       -0.004350      0.001677      0.002673
 --------------------------------------------------------
                        XY            XZ            YZ
 --------------------------------------------------------
     1   Atom       -0.000846     -0.000599     -0.000017
     2   Atom        0.005048      0.003470      0.002530
     3   Atom       -0.001470     -0.000409      0.000220
     4   Atom       -0.000830     -0.001201      0.000273
     5   Atom       -0.010333     -0.008005      0.017572
     6   Atom       -0.001272      0.001212     -0.000559
     7   Atom        0.000451     -0.000654     -0.001035
     8   Atom       -0.003292     -0.004314      0.000651
     9   Atom       -0.003635     -0.002930      0.000401
    10   Atom       -0.000581     -0.000222     -0.000048
    11   Atom       -0.000346     -0.000159      0.000013
    12   Atom       -0.000050     -0.000167     -0.000052
    13   Atom       -0.000408      0.000249     -0.000086
    14   Atom        0.122565     -0.001237      0.003538
    15   Atom       -0.013106     -0.007707      0.138180
    16   Atom        0.005060     -0.024054     -0.002124
    17   Atom        0.017566      0.036387      0.002361
    18   Atom       -0.070878      0.030861     -0.095238
    19   Atom        0.085098     -0.059172     -0.120781
    20   Atom       -0.105782      0.003227     -0.001885
    21   Atom        0.210392     -0.048792     -0.021646
    22   Atom        0.053047     -0.009408     -0.209724
    23   Atom        0.066833      0.074610      0.121604
    24   Atom        0.008727     -0.002886     -0.002230
    25   Atom        0.016569      0.001793      0.005865
    26   Atom        0.000464     -0.000684      0.002607
 --------------------------------------------------------


 ---------------------------------------------------------------------------------
              Anisotropic Spin Dipole Couplings in Principal Axis System
 ---------------------------------------------------------------------------------

       Atom             a.u.   MegaHertz   Gauss  10(-4) cm-1        Axes

              Baa    -0.0015    -0.200    -0.071    -0.067  0.2298  0.4016  0.8865
     1 C(13)  Bbb    -0.0011    -0.147    -0.053    -0.049  0.1437  0.8869 -0.4390
              Bcc     0.0026     0.347     0.124     0.116  0.9626 -0.2282 -0.1461
 
              Baa    -0.0086    -1.152    -0.411    -0.384  0.0031 -0.5749  0.8182
     2 C(13)  Bbb    -0.0054    -0.722    -0.258    -0.241 -0.3362  0.7700  0.5423
              Bcc     0.0140     1.874     0.669     0.625  0.9418  0.2767  0.1909
 
              Baa    -0.0012    -0.654    -0.233    -0.218  0.1431 -0.0080  0.9897
     3 H(1)   Bbb    -0.0012    -0.619    -0.221    -0.206  0.4728  0.8790 -0.0613
              Bcc     0.0024     1.273     0.454     0.425  0.8695 -0.4767 -0.1296
 
              Baa    -0.0012    -0.659    -0.235    -0.220  0.4821  0.3951  0.7819
     4 H(1)   Bbb    -0.0010    -0.519    -0.185    -0.173  0.0629  0.8746 -0.4808
              Bcc     0.0022     1.177     0.420     0.393  0.8738 -0.2810 -0.3968
 
              Baa    -0.0163    -2.186    -0.780    -0.729  0.1529 -0.5036  0.8503
     5 C(13)  Bbb    -0.0108    -1.453    -0.518    -0.485  0.9170  0.3931  0.0680
              Bcc     0.0271     3.638     1.298     1.214 -0.3684  0.7693  0.5219
 
              Baa    -0.0037    -1.985    -0.708    -0.662  0.0991  0.9620  0.2545
     6 H(1)   Bbb    -0.0022    -1.164    -0.415    -0.388 -0.1887 -0.2330  0.9540
              Bcc     0.0059     3.149     1.124     1.050  0.9770 -0.1426  0.1584
 
              Baa    -0.0035    -1.875    -0.669    -0.625  0.0424  0.4940  0.8684
     7 H(1)   Bbb    -0.0012    -0.648    -0.231    -0.216 -0.1212  0.8654 -0.4863
              Bcc     0.0047     2.523     0.900     0.842  0.9917  0.0846 -0.0966
 
              Baa    -0.0059    -3.148    -1.123    -1.050  0.8160  0.4105  0.4071
     8 H(1)   Bbb     0.0001     0.051     0.018     0.017 -0.1342  0.8195 -0.5572
              Bcc     0.0058     3.097     1.105     1.033 -0.5623  0.4000  0.7238
 
              Baa    -0.0053    -2.811    -1.003    -0.938  0.6890  0.2550  0.6784
     9 H(1)   Bbb    -0.0006    -0.342    -0.122    -0.114 -0.5006 -0.5093  0.7000
              Bcc     0.0059     3.153     1.125     1.052 -0.5240  0.8219  0.2232
 
              Baa    -0.0009    -0.033    -0.012    -0.011  0.2421  0.6457  0.7242
    10 N(14)  Bbb    -0.0007    -0.025    -0.009    -0.008  0.1322  0.7175 -0.6839
              Bcc     0.0015     0.059     0.021     0.020  0.9612 -0.2613 -0.0883
 
              Baa    -0.0005    -0.278    -0.099    -0.093  0.2386  0.6331  0.7364
    11 H(1)   Bbb    -0.0005    -0.250    -0.089    -0.084  0.1098  0.7359 -0.6682
              Bcc     0.0010     0.529     0.189     0.176  0.9649 -0.2403 -0.1061
 
              Baa    -0.0008    -0.422    -0.151    -0.141  0.0719  0.6234  0.7786
    12 H(1)   Bbb    -0.0007    -0.361    -0.129    -0.120 -0.0305  0.7817 -0.6230
              Bcc     0.0015     0.783     0.279     0.261  0.9969 -0.0210 -0.0752
 
              Baa    -0.0008    -0.407    -0.145    -0.136  0.0235  0.6061  0.7950
    13 H(1)   Bbb    -0.0007    -0.368    -0.131    -0.123  0.2281  0.7710 -0.5946
              Bcc     0.0015     0.775     0.277     0.258  0.9734 -0.1953  0.1201
 
              Baa    -0.1717   -23.044    -8.223    -7.687  0.9567 -0.2513  0.1468
    14 C(13)  Bbb    -0.1573   -21.111    -7.533    -7.042 -0.1437  0.0311  0.9891
              Bcc     0.3291    44.156    15.756    14.729  0.2531  0.9674  0.0064
 
              Baa    -0.5198    37.613    13.421    12.546  0.7619 -0.0517  0.6457
    15 O(17)  Bbb    -0.5066    36.661    13.081    12.229 -0.6477 -0.0745  0.7583
              Bcc     1.0265   -74.274   -26.503   -24.775 -0.0089  0.9959  0.0902
 
              Baa    -0.0302   -16.089    -5.741    -5.367  0.3316  0.0234  0.9431
    16 H(1)   Bbb    -0.0167    -8.920    -3.183    -2.975 -0.0893  0.9960  0.0067
              Bcc     0.0469    25.009     8.924     8.342  0.9392  0.0865 -0.3324
 
              Baa    -0.0476   -10.282    -3.669    -3.430 -0.2258  0.9332  0.2795
    17 P(31)  Bbb    -0.0371    -8.016    -2.860    -2.674 -0.2537 -0.3334  0.9080
              Bcc     0.0846    18.298     6.529     6.104  0.9406  0.1341  0.3120
 
              Baa    -0.0909   -19.649    -7.011    -6.554  0.5519  0.6213  0.5562
    18 P(31)  Bbb    -0.0618   -13.358    -4.767    -4.456  0.7501 -0.0786 -0.6566
              Bcc     0.1527    33.007    11.778    11.010 -0.3642  0.7796 -0.5094
 
              Baa    -0.1004     7.267     2.593     2.424 -0.5165  0.6539  0.5529
    19 O(17)  Bbb    -0.0974     7.049     2.515     2.351  0.7684  0.0689  0.6363
              Bcc     0.1978   -14.316    -5.108    -4.775  0.3779  0.7535 -0.5380
 
              Baa    -0.2292    16.588     5.919     5.533  0.9427  0.1501 -0.2979
    20 O(17)  Bbb    -0.2191    15.853     5.657     5.288  0.2936  0.0505  0.9546
              Bcc     0.4483   -32.441   -11.576   -10.821 -0.1583  0.9874 -0.0035
 
              Baa    -0.1872    13.542     4.832     4.517  0.1725 -0.1422  0.9747
    21 O(17)  Bbb    -0.1801    13.029     4.649     4.346 -0.4027  0.8929  0.2015
              Bcc     0.3672   -26.571    -9.481    -8.863  0.8989  0.4273 -0.0968
 
              Baa    -0.3964    28.684    10.235     9.568 -0.0232  0.1837  0.9827
    22 O(17)  Bbb    -0.3775    27.314     9.746     9.111  0.9986 -0.0418  0.0314
              Bcc     0.7739   -55.998   -19.981   -18.679  0.0468  0.9821 -0.1825
 
              Baa    -0.0996     7.208     2.572     2.404  0.7058 -0.6798  0.1993
    23 O(17)  Bbb    -0.0926     6.699     2.390     2.234 -0.6018 -0.4270  0.6749
              Bcc     0.1922   -13.907    -4.962    -4.639  0.3737  0.5963  0.7105
 
              Baa    -0.0090    -4.792    -1.710    -1.598 -0.6738  0.7382 -0.0318
    24 H(1)   Bbb    -0.0010    -0.523    -0.186    -0.174  0.2427  0.2617  0.9341
              Bcc     0.0100     5.314     1.896     1.773  0.6979  0.6217 -0.3555
 
              Baa    -0.0517     3.739     1.334     1.247  0.9168 -0.0861 -0.3899
    25 O(17)  Bbb    -0.0485     3.511     1.253     1.171  0.3838 -0.0802  0.9199
              Bcc     0.1002    -7.250    -2.587    -2.418  0.1105  0.9931  0.0404
 
              Baa    -0.0045    -2.407    -0.859    -0.803  0.9809 -0.1331  0.1416
    26 H(1)   Bbb    -0.0003    -0.173    -0.062    -0.058  0.1927  0.7616 -0.6187
              Bcc     0.0048     2.580     0.921     0.861 -0.0255  0.6342  0.7727
 

 ---------------------------------------------------------------------------------


 Test job not archived.
 1\1\GINC-BATAGIN1\SP\UB3LYP\6-31G(d,p)\C4H12N1O7P2(2)\ORISON\08-Feb-20
 21\0\\#t B3LYP/6-31G(d,p) scrf=(solvent=water) # Gfinput IOP(6/7=3) Po
 p=hirshfeld Density Test # Units(Ang,Deg)\\ale-1p-2dp-opt-g09.log\\0,2
 \C,0,-3.42399,-1.08266,0.43204\C,0,-2.28545,-0.29034,-0.19446\H,0,-3.3
 668,-2.14776,0.20111\H,0,-3.46679,-0.95978,1.51567\C,0,-0.92959,-0.786
 13,0.33085\H,0,-2.30609,-0.40779,-1.28332\H,0,-2.41432,0.77354,0.01847
 \H,0,-0.87426,-0.63401,1.414\H,0,-0.86396,-1.86337,0.14587\N,0,-4.7624
 2,-0.60922,-0.09646\H,0,-5.54037,-1.12217,0.3271\H,0,-4.9084,0.38587,0
 .09734\H,0,-4.8269,-0.73535,-1.11066\C,0,0.29961,-0.11832,-0.31289\O,0
 ,0.17564,-0.20847,-1.74717\H,0,1.09783,-0.37767,-2.03475\P,0,1.88823,-
 1.06283,0.09774\P,0,0.49297,1.68565,0.18927\O,0,2.6849,-1.01217,-1.197
 68\O,0,1.80035,2.21563,-0.35752\O,0,2.4832,-0.66965,1.42985\O,0,0.1166
 1,1.87603,1.6478\O,0,-0.73545,2.41292,-0.70251\H,0,-1.32767,2.81357,-0
 .05048\O,0,1.38012,-2.65142,0.2312\H,0,1.21027,-2.84097,1.16485\\Versi
 on=EM64L-G16RevA.03\State=2-A\HF=-1423.7758183\S2=0.754527\S2-1=0.\S2A
 =0.750016\RMSD=7.906e-09\Dipole=-13.6251883,-2.8446417,-0.0470224\Quad
 rupole=41.0366896,-19.9185502,-21.1181394,7.8733729,-0.0546773,-4.4044
 648\PG=C01 [X(C4H12N1O7P2)]\\@


 EVANS BOLDLY PUT 50 ATM. OF ETHYLENE IN A CELL WITH 25 ATM. OF OXYGEN.
 THE APPARATUS SUBSEQUENTLY BLEW UP, BUT LUCKILY NOT BEFORE HE
 OBTAINED THE SPECTRA SHOWN IN FIGURE 8.
 A.J.MERER AND R.S.MULLIKEN, CHEM.REV. 69, 645 (1969)
 Job cpu time:       0 days  0 hours 26 minutes 27.7 seconds.
 Elapsed time:       0 days  0 hours  3 minutes 18.9 seconds.
 File lengths (MBytes):  RWF=    150 Int=      0 D2E=      0 Chk=      7 Scr=      1
 Normal termination of Gaussian 16 at Mon Feb  8 14:35:50 2021.
